/*--------------------------------*- C++ -*----------------------------------*\
| =========                 |                                                 |
| \\      /  F ield         | OpenFOAM: The Open Source CFD Toolbox           |
|  \\    /   O peration     | Version:  2412                                  |
|   \\  /    A nd           | Website:  www.openfoam.com                      |
|    \\/     M anipulation  |                                                 |
\*---------------------------------------------------------------------------*/
FoamFile
{
    version     2.0;
    format      ascii;
    arch        "LSB;label=32;scalar=64";
    class       volScalarField;
    location    "2.006708";
    object      p;
}
// * * * * * * * * * * * * * * * * * * * * * * * * * * * * * * * * * * * * * //

dimensions      [0 2 -2 0 0 0 0];

internalField   nonuniform List<scalar> 
16000
(
1.6285
1.5345
1.45827
1.40715
1.36831
1.33235
1.29723
1.26369
1.23235
1.20315
1.17577
1.14988
1.12525
1.10171
1.07917
1.05755
1.03676
1.01675
0.997455
0.978808
0.960749
0.943217
0.926167
0.90956
0.893365
0.877547
0.862063
0.846886
0.831953
0.817255
0.80279
0.788568
0.774605
1.57729
1.50962
1.44673
1.39945
1.36235
1.32846
1.29517
1.26273
1.23186
1.20281
1.17541
1.14944
1.1247
1.10108
1.0785
1.05686
1.03609
1.01611
0.996854
0.978258
0.960247
0.942762
0.925752
0.909184
0.893027
0.877248
0.8618
0.846636
0.831712
0.817011
0.802536
0.788306
0.774343
1.55572
1.49812
1.44273
1.39859
1.3624
1.3291
1.29642
1.26433
1.23347
1.20421
1.17656
1.15035
1.12542
1.10164
1.07893
1.05719
1.03634
1.0163
0.996991
0.978348
0.9603
0.942786
0.925754
0.909166
0.892991
0.877192
0.861729
0.846554
0.831626
0.816923
0.802443
0.788202
0.774221
1.54699
1.49259
1.44031
1.39779
1.36207
1.32897
1.29655
1.2647
1.23394
1.20468
1.17696
1.15069
1.1257
1.10188
1.07912
1.05734
1.03646
1.0164
0.997072
0.978414
0.960355
0.942833
0.925796
0.909202
0.893017
0.877206
0.86173
0.846546
0.831616
0.816914
0.802436
0.788193
0.774206
1.54699
1.49259
1.44031
1.39779
1.36207
1.32897
1.29655
1.2647
1.23394
1.20468
1.17696
1.15069
1.1257
1.10188
1.07912
1.05734
1.03646
1.0164
0.997072
0.978414
0.960355
0.942833
0.925796
0.909202
0.893017
0.877206
0.86173
0.846546
0.831616
0.816914
0.802436
0.788193
0.774206
1.55572
1.49812
1.44273
1.39859
1.3624
1.3291
1.29642
1.26433
1.23347
1.20421
1.17656
1.15035
1.12542
1.10164
1.07893
1.05719
1.03634
1.0163
0.996991
0.978348
0.9603
0.942786
0.925754
0.909166
0.892991
0.877192
0.861729
0.846554
0.831626
0.816923
0.802443
0.788202
0.774221
1.57729
1.50962
1.44673
1.39945
1.36235
1.32846
1.29517
1.26273
1.23186
1.20281
1.17541
1.14944
1.1247
1.10108
1.0785
1.05686
1.03609
1.01611
0.996854
0.978258
0.960247
0.942762
0.925752
0.909184
0.893027
0.877248
0.8618
0.846636
0.831712
0.817011
0.802536
0.788306
0.774343
1.6285
1.5345
1.45827
1.40715
1.36831
1.33235
1.29723
1.26369
1.23235
1.20315
1.17577
1.14988
1.12525
1.10171
1.07917
1.05755
1.03676
1.01675
0.997455
0.978808
0.960749
0.943217
0.926167
0.90956
0.893365
0.877547
0.862063
0.846886
0.831953
0.817255
0.80279
0.788568
0.774605
1.57519
1.50755
1.44485
1.39795
1.36128
1.32773
1.29471
1.26249
1.23183
1.20295
1.17569
1.14982
1.12516
1.1016
1.07905
1.05742
1.03665
1.01666
0.997382
0.978756
0.960711
0.943187
0.92614
0.909537
0.893351
0.877547
0.862076
0.846893
0.831958
0.817243
0.802753
0.788502
0.774514
1.52468
1.48397
1.43604
1.39348
1.35764
1.32503
1.29319
1.26181
1.2315
1.2027
1.17544
1.14958
1.12494
1.1014
1.07887
1.05726
1.03651
1.01653
0.997278
0.978673
0.960644
0.94313
0.926086
0.909486
0.893305
0.877514
0.862062
0.846889
0.831944
0.817205
0.802678
0.788391
0.774372
1.50326
1.47253
1.43261
1.39348
1.35837
1.32602
1.29465
1.26372
1.23356
1.20465
1.17717
1.15107
1.12623
1.10251
1.07982
1.05808
1.03721
1.01713
0.99779
0.979108
0.961016
0.943451
0.926367
0.90973
0.893513
0.877679
0.862184
0.846976
0.832011
0.817265
0.80274
0.788453
0.774427
1.49456
1.467
1.43034
1.393
1.35839
1.32615
1.29496
1.26426
1.23425
1.20535
1.1778
1.15163
1.12672
1.10294
1.0802
1.05841
1.0375
1.0174
0.998023
0.979316
0.961206
0.94363
0.926536
0.909887
0.893651
0.877795
0.862279
0.847055
0.832084
0.81734
0.802818
0.788532
0.774502
1.49456
1.467
1.43034
1.393
1.35839
1.32615
1.29496
1.26426
1.23425
1.20535
1.1778
1.15163
1.12672
1.10294
1.0802
1.05841
1.0375
1.0174
0.998023
0.979316
0.961206
0.94363
0.926536
0.909887
0.893651
0.877795
0.862279
0.847055
0.832084
0.81734
0.802818
0.788532
0.774502
1.50326
1.47253
1.43261
1.39348
1.35837
1.32602
1.29465
1.26372
1.23356
1.20465
1.17717
1.15107
1.12623
1.10251
1.07982
1.05808
1.03721
1.01713
0.99779
0.979108
0.961016
0.943451
0.926367
0.90973
0.893513
0.877679
0.862184
0.846976
0.832011
0.817265
0.80274
0.788453
0.774427
1.52468
1.48397
1.43604
1.39348
1.35764
1.32503
1.29319
1.26181
1.2315
1.2027
1.17544
1.14958
1.12494
1.1014
1.07887
1.05726
1.03651
1.01653
0.997278
0.978673
0.960644
0.94313
0.926086
0.909486
0.893305
0.877514
0.862062
0.846889
0.831944
0.817205
0.802678
0.788391
0.774372
1.57519
1.50755
1.44485
1.39795
1.36128
1.32773
1.29471
1.26249
1.23183
1.20295
1.17569
1.14982
1.12516
1.1016
1.07905
1.05742
1.03665
1.01666
0.997382
0.978756
0.960711
0.943187
0.92614
0.909537
0.893351
0.877547
0.862076
0.846893
0.831958
0.817243
0.802753
0.788502
0.774514
1.54845
1.49128
1.43675
1.39386
1.35898
1.32679
1.29498
1.26359
1.23333
1.20457
1.17728
1.15133
1.12656
1.10289
1.08023
1.05851
1.03765
1.01757
0.998214
0.979509
0.961394
0.943809
0.926707
0.91005
0.893811
0.877951
0.862445
0.847224
0.832265
0.817541
0.803046
0.788789
0.774787
1.49808
1.46776
1.42853
1.39026
1.35603
1.32443
1.29365
1.26318
1.23342
1.20483
1.1776
1.15168
1.12694
1.10328
1.08062
1.05888
1.038
1.01789
0.998514
0.979789
0.96165
0.944042
0.926915
0.910236
0.893982
0.878115
0.862593
0.847361
0.832378
0.817619
0.803081
0.788782
0.774744
1.47699
1.45667
1.42568
1.39099
1.35738
1.32582
1.29542
1.26548
1.23602
1.20744
1.18004
1.15391
1.12897
1.10512
1.08227
1.06035
1.0393
1.01904
0.999519
0.980665
0.962413
0.944706
0.9275
0.910755
0.894433
0.878498
0.862907
0.847616
0.832589
0.817802
0.803252
0.788947
0.774902
1.46842
1.45125
1.42359
1.39075
1.35763
1.32609
1.29582
1.26614
1.23688
1.20836
1.18092
1.15471
1.12971
1.1058
1.0829
1.06093
1.03982
1.01951
0.999946
0.981053
0.962767
0.945032
0.927799
0.911026
0.894676
0.878713
0.863097
0.847788
0.83275
0.817959
0.803407
0.789098
0.775044
1.46842
1.45125
1.42359
1.39075
1.35763
1.32609
1.29582
1.26614
1.23688
1.20836
1.18092
1.15471
1.12971
1.1058
1.0829
1.06093
1.03982
1.01951
0.999946
0.981053
0.962767
0.945032
0.927799
0.911026
0.894676
0.878713
0.863097
0.847788
0.83275
0.817959
0.803407
0.789098
0.775044
1.47699
1.45667
1.42568
1.39099
1.35738
1.32582
1.29542
1.26548
1.23602
1.20744
1.18004
1.15391
1.12897
1.10512
1.08227
1.06035
1.0393
1.01904
0.999519
0.980665
0.962413
0.944706
0.9275
0.910755
0.894433
0.878498
0.862907
0.847616
0.832589
0.817802
0.803252
0.788947
0.774902
1.49808
1.46776
1.42853
1.39026
1.35603
1.32443
1.29365
1.26318
1.23342
1.20483
1.1776
1.15168
1.12694
1.10328
1.08062
1.05888
1.038
1.01789
0.998514
0.979789
0.96165
0.944042
0.926915
0.910236
0.893982
0.878115
0.862593
0.847361
0.832378
0.817619
0.803081
0.788782
0.774744
1.54845
1.49128
1.43675
1.39386
1.35898
1.32679
1.29498
1.26359
1.23333
1.20457
1.17728
1.15133
1.12656
1.10289
1.08023
1.05851
1.03765
1.01757
0.998214
0.979509
0.961394
0.943809
0.926707
0.91005
0.893811
0.877951
0.862445
0.847224
0.832265
0.817541
0.803046
0.788789
0.774787
1.53187
1.4788
1.4288
1.3891
1.35602
1.325
1.29415
1.26358
1.23388
1.20546
1.17835
1.15248
1.12774
1.10405
1.08136
1.0596
1.03869
1.01857
0.999158
0.9804
0.962234
0.944605
0.927461
0.910764
0.894475
0.878568
0.863001
0.847742
0.832757
0.818022
0.803528
0.789277
0.775281
1.48148
1.45519
1.42064
1.38574
1.35337
1.32288
1.293
1.26333
1.23418
1.20597
1.17893
1.15309
1.12838
1.10471
1.08201
1.06023
1.03929
1.01913
0.999679
0.980886
0.962683
0.945017
0.927836
0.911104
0.894787
0.878853
0.863264
0.847983
0.832971
0.818204
0.803673
0.789385
0.775355
1.46052
1.44421
1.41797
1.38674
1.35499
1.32446
1.29491
1.26579
1.237
1.20886
1.18169
1.15566
1.13074
1.10688
1.08399
1.06201
1.04088
1.02053
1.00092
0.981978
0.963641
0.945857
0.928576
0.911757
0.895361
0.879351
0.863692
0.848347
0.833284
0.818479
0.803925
0.789622
0.775578
1.45204
1.43886
1.41594
1.38659
1.35533
1.32479
1.29536
1.26651
1.23796
1.20991
1.18271
1.1566
1.13161
1.10769
1.08474
1.0627
1.0415
1.0211
1.00143
0.982443
0.964064
0.946241
0.928925
0.912073
0.895647
0.879611
0.86393
0.848568
0.833492
0.818678
0.804115
0.789802
0.775748
1.45204
1.43886
1.41594
1.38659
1.35533
1.32479
1.29536
1.26651
1.23796
1.20991
1.18271
1.1566
1.13161
1.10769
1.08474
1.0627
1.0415
1.0211
1.00143
0.982443
0.964064
0.946241
0.928925
0.912073
0.895647
0.879611
0.86393
0.848568
0.833492
0.818678
0.804115
0.789802
0.775748
1.46052
1.44421
1.41797
1.38674
1.35499
1.32446
1.29491
1.26579
1.237
1.20886
1.18169
1.15566
1.13074
1.10688
1.08399
1.06201
1.04088
1.02053
1.00092
0.981978
0.963641
0.945857
0.928576
0.911757
0.895361
0.879351
0.863692
0.848347
0.833284
0.818479
0.803925
0.789622
0.775578
1.48148
1.45519
1.42064
1.38574
1.35337
1.32288
1.293
1.26333
1.23418
1.20597
1.17893
1.15309
1.12838
1.10471
1.08201
1.06023
1.03929
1.01913
0.999679
0.980886
0.962683
0.945017
0.927836
0.911104
0.894787
0.878853
0.863264
0.847983
0.832971
0.818204
0.803673
0.789385
0.775355
1.53187
1.4788
1.4288
1.3891
1.35602
1.325
1.29415
1.26358
1.23388
1.20546
1.17835
1.15248
1.12774
1.10405
1.08136
1.0596
1.03869
1.01857
0.999158
0.9804
0.962234
0.944605
0.927461
0.910764
0.894475
0.878568
0.863001
0.847742
0.832757
0.818022
0.803528
0.789277
0.775281
1.52039
1.4691
1.42162
1.38427
1.35287
1.32297
1.29298
1.26311
1.23398
1.20595
1.17909
1.15337
1.12871
1.10507
1.0824
1.06064
1.03972
1.01957
1.00013
0.981342
0.963142
0.945478
0.928299
0.911556
0.895228
0.879268
0.863654
0.848354
0.83334
0.818592
0.804098
0.789857
0.775874
1.46994
1.44538
1.41335
1.38089
1.3503
1.32094
1.29189
1.26292
1.23433
1.20654
1.17977
1.15409
1.12947
1.10585
1.08317
1.06139
1.04043
1.02025
1.00076
0.981929
0.963685
0.945977
0.928757
0.91198
0.895613
0.879622
0.863979
0.848652
0.83361
0.818831
0.804306
0.790036
0.776027
1.44901
1.4344
1.41069
1.38195
1.35203
1.32264
1.2939
1.26546
1.23726
1.20957
1.1827
1.15683
1.13201
1.10819
1.08532
1.06333
1.04217
1.02179
1.00213
0.983135
0.964746
0.946909
0.929576
0.912703
0.896251
0.880184
0.864471
0.849082
0.83399
0.819171
0.804617
0.790323
0.776291
1.44055
1.42907
1.40868
1.38184
1.35241
1.32302
1.29439
1.26622
1.23827
1.21068
1.18379
1.15785
1.13296
1.10908
1.08614
1.06408
1.04286
1.02241
1.00269
0.983642
0.965204
0.947322
0.92995
0.913044
0.896565
0.880475
0.864741
0.849332
0.834222
0.819389
0.804822
0.790516
0.776473
1.44055
1.42907
1.40868
1.38184
1.35241
1.32302
1.29439
1.26622
1.23827
1.21068
1.18379
1.15785
1.13296
1.10908
1.08614
1.06408
1.04286
1.02241
1.00269
0.983642
0.965204
0.947322
0.92995
0.913044
0.896565
0.880475
0.864741
0.849332
0.834222
0.819389
0.804822
0.790516
0.776473
1.44901
1.4344
1.41069
1.38195
1.35203
1.32264
1.2939
1.26546
1.23726
1.20957
1.1827
1.15683
1.13201
1.10819
1.08532
1.06333
1.04217
1.02179
1.00213
0.983135
0.964746
0.946909
0.929576
0.912703
0.896251
0.880184
0.864471
0.849082
0.83399
0.819171
0.804617
0.790323
0.776291
1.46994
1.44538
1.41335
1.38089
1.3503
1.32094
1.29189
1.26292
1.23433
1.20654
1.17977
1.15409
1.12947
1.10585
1.08317
1.06139
1.04043
1.02025
1.00076
0.981929
0.963685
0.945977
0.928757
0.91198
0.895613
0.879622
0.863979
0.848652
0.83361
0.818831
0.804306
0.790036
0.776027
1.52039
1.4691
1.42162
1.38427
1.35287
1.32297
1.29298
1.26311
1.23398
1.20595
1.17909
1.15337
1.12871
1.10507
1.0824
1.06064
1.03972
1.01957
1.00013
0.981342
0.963142
0.945478
0.928299
0.911556
0.895228
0.879268
0.863654
0.848354
0.83334
0.818592
0.804098
0.789857
0.775874
1.51215
1.46176
1.41575
1.38004
1.35001
1.3211
1.29182
1.26253
1.23387
1.2062
1.17959
1.15403
1.12947
1.1059
1.08327
1.06153
1.04061
1.02046
1.001
0.982188
0.963962
0.94627
0.929061
0.912293
0.895921
0.879923
0.86427
0.848935
0.833897
0.819137
0.804645
0.790416
0.776449
1.46164
1.43794
1.40736
1.37657
1.34741
1.31908
1.29076
1.26236
1.23425
1.20683
1.18033
1.15482
1.1303
1.10675
1.08411
1.06234
1.04139
1.02119
1.00169
0.982826
0.964552
0.946813
0.929561
0.91275
0.896342
0.880308
0.864622
0.849257
0.834189
0.819401
0.804881
0.790626
0.776635
1.44069
1.42693
1.40466
1.37763
1.34918
1.32085
1.29283
1.26495
1.23724
1.20994
1.18334
1.15766
1.13295
1.1092
1.08636
1.06438
1.04322
1.02281
1.00312
0.984094
0.965668
0.947793
0.930421
0.913506
0.897009
0.880897
0.865142
0.84972
0.834605
0.819777
0.805223
0.790936
0.776912
1.43223
1.4216
1.40266
1.37753
1.34959
1.32126
1.29335
1.26575
1.23828
1.21109
1.18448
1.15873
1.13395
1.11013
1.08722
1.06517
1.04394
1.02347
1.00371
0.984627
0.966148
0.948224
0.93081
0.913861
0.897337
0.881202
0.865426
0.849983
0.834849
0.820004
0.805436
0.791135
0.777099
1.43223
1.4216
1.40266
1.37753
1.34959
1.32126
1.29335
1.26575
1.23828
1.21109
1.18448
1.15873
1.13395
1.11013
1.08722
1.06517
1.04394
1.02347
1.00371
0.984627
0.966148
0.948224
0.93081
0.913861
0.897337
0.881202
0.865426
0.849983
0.834849
0.820004
0.805436
0.791135
0.777099
1.44069
1.42693
1.40466
1.37763
1.34918
1.32085
1.29283
1.26495
1.23724
1.20994
1.18334
1.15766
1.13295
1.1092
1.08636
1.06438
1.04322
1.02281
1.00312
0.984094
0.965668
0.947793
0.930421
0.913506
0.897009
0.880897
0.865142
0.84972
0.834605
0.819777
0.805223
0.790936
0.776912
1.46164
1.43794
1.40736
1.37657
1.34741
1.31908
1.29076
1.26236
1.23425
1.20683
1.18033
1.15482
1.1303
1.10675
1.08411
1.06234
1.04139
1.02119
1.00169
0.982826
0.964552
0.946813
0.929561
0.91275
0.896342
0.880308
0.864622
0.849257
0.834189
0.819401
0.804881
0.790626
0.776635
1.51215
1.46176
1.41575
1.38004
1.35001
1.3211
1.29182
1.26253
1.23387
1.2062
1.17959
1.15403
1.12947
1.1059
1.08327
1.06153
1.04061
1.02046
1.001
0.982188
0.963962
0.94627
0.929061
0.912293
0.895921
0.879923
0.86427
0.848935
0.833897
0.819137
0.804645
0.790416
0.776449
1.50625
1.45637
1.41124
1.37662
1.34761
1.31947
1.29078
1.26194
1.23365
1.20627
1.17988
1.15447
1.13002
1.10652
1.08393
1.06222
1.04132
1.02116
1.0017
0.982877
0.964634
0.946922
0.929692
0.912898
0.8965
0.880473
0.86479
0.84943
0.834374
0.819606
0.805116
0.790896
0.776943
1.45569
1.43248
1.40276
1.37305
1.34494
1.31744
1.28972
1.26177
1.23404
1.20692
1.18065
1.1553
1.13089
1.10741
1.08482
1.06307
1.04213
1.02193
1.00242
0.983538
0.965244
0.947483
0.930207
0.913369
0.896932
0.880868
0.86515
0.849758
0.834672
0.819876
0.80536
0.791116
0.77714
1.43471
1.42143
1.40002
1.37409
1.34671
1.31924
1.29183
1.26441
1.23706
1.21007
1.18372
1.15821
1.13361
1.10992
1.08712
1.06516
1.044
1.02359
1.00389
0.984836
0.966384
0.948482
0.931081
0.914136
0.897608
0.881464
0.865681
0.850233
0.835101
0.820265
0.805711
0.791429
0.777413
1.42624
1.41608
1.39801
1.374
1.34713
1.31966
1.29237
1.26522
1.23813
1.21125
1.18489
1.15931
1.13464
1.11088
1.08801
1.06598
1.04475
1.02427
1.0045
0.985385
0.966877
0.948923
0.931477
0.914496
0.897941
0.881777
0.865973
0.850505
0.835352
0.820497
0.805924
0.791625
0.777595
1.42624
1.41608
1.39801
1.374
1.34713
1.31966
1.29237
1.26522
1.23813
1.21125
1.18489
1.15931
1.13464
1.11088
1.08801
1.06598
1.04475
1.02427
1.0045
0.985385
0.966877
0.948923
0.931477
0.914496
0.897941
0.881777
0.865973
0.850505
0.835352
0.820497
0.805924
0.791625
0.777595
1.43471
1.42143
1.40002
1.37409
1.34671
1.31924
1.29183
1.26441
1.23706
1.21007
1.18372
1.15821
1.13361
1.10992
1.08712
1.06516
1.044
1.02359
1.00389
0.984836
0.966384
0.948482
0.931081
0.914136
0.897608
0.881464
0.865681
0.850233
0.835101
0.820265
0.805711
0.791429
0.777413
1.45569
1.43248
1.40276
1.37305
1.34494
1.31744
1.28972
1.26177
1.23404
1.20692
1.18065
1.1553
1.13089
1.10741
1.08482
1.06307
1.04213
1.02193
1.00242
0.983538
0.965244
0.947483
0.930207
0.913369
0.896932
0.880868
0.86515
0.849758
0.834672
0.819876
0.80536
0.791116
0.77714
1.50625
1.45637
1.41124
1.37662
1.34761
1.31947
1.29078
1.26194
1.23365
1.20627
1.17988
1.15447
1.13002
1.10652
1.08393
1.06222
1.04132
1.02116
1.0017
0.982877
0.964634
0.946922
0.929692
0.912898
0.8965
0.880473
0.86479
0.84943
0.834374
0.819606
0.805116
0.790896
0.776943
1.50216
1.45258
1.40799
1.37406
1.34573
1.31817
1.28992
1.26142
1.23341
1.20625
1.18003
1.15475
1.13039
1.10695
1.08441
1.06272
1.04184
1.02169
1.00223
0.983396
0.965143
0.947418
0.930171
0.913358
0.896942
0.880894
0.86519
0.849813
0.834745
0.819972
0.805483
0.791271
0.777326
1.45157
1.42865
1.39944
1.37042
1.343
1.31611
1.28885
1.26125
1.23379
1.20691
1.18082
1.1556
1.13129
1.10786
1.08531
1.0636
1.04267
1.02247
1.00295
0.984066
0.96576
0.947985
0.930691
0.913834
0.897377
0.88129
0.865551
0.850141
0.835043
0.820242
0.805728
0.791492
0.777526
1.43056
1.41757
1.39668
1.37143
1.34477
1.31791
1.29098
1.26391
1.23684
1.21008
1.18392
1.15855
1.13404
1.11041
1.08765
1.06571
1.04456
1.02415
1.00444
0.985376
0.96691
0.948991
0.931571
0.914606
0.898056
0.88189
0.866084
0.850619
0.835475
0.820633
0.80608
0.791804
0.777794
1.42208
1.41221
1.39465
1.37133
1.34519
1.31834
1.29153
1.26473
1.23792
1.21127
1.18511
1.15967
1.13509
1.11139
1.08855
1.06654
1.04532
1.02484
1.00506
0.985933
0.967408
0.949435
0.93197
0.914969
0.898393
0.882206
0.86638
0.850893
0.835727
0.820865
0.806292
0.791998
0.777973
1.42208
1.41221
1.39465
1.37133
1.34519
1.31834
1.29153
1.26473
1.23792
1.21127
1.18511
1.15967
1.13509
1.11139
1.08855
1.06654
1.04532
1.02484
1.00506
0.985933
0.967408
0.949435
0.93197
0.914969
0.898393
0.882206
0.86638
0.850893
0.835727
0.820865
0.806292
0.791998
0.777973
1.43056
1.41757
1.39668
1.37143
1.34477
1.31791
1.29098
1.26391
1.23684
1.21008
1.18392
1.15855
1.13404
1.11041
1.08765
1.06571
1.04456
1.02415
1.00444
0.985376
0.96691
0.948991
0.931571
0.914606
0.898056
0.88189
0.866084
0.850619
0.835475
0.820633
0.80608
0.791804
0.777794
1.45157
1.42865
1.39944
1.37042
1.343
1.31611
1.28885
1.26125
1.23379
1.20691
1.18082
1.1556
1.13129
1.10786
1.08531
1.0636
1.04267
1.02247
1.00295
0.984066
0.96576
0.947985
0.930691
0.913834
0.897377
0.88129
0.865551
0.850141
0.835043
0.820242
0.805728
0.791492
0.777526
1.50216
1.45258
1.40799
1.37406
1.34573
1.31817
1.28992
1.26142
1.23341
1.20625
1.18003
1.15475
1.13039
1.10695
1.08441
1.06272
1.04184
1.02169
1.00223
0.983396
0.965143
0.947418
0.930171
0.913358
0.896942
0.880894
0.86519
0.849813
0.834745
0.819972
0.805483
0.791271
0.777326
1.49958
1.45017
1.40588
1.37235
1.34445
1.31726
1.2893
1.26104
1.23321
1.2062
1.1801
1.15491
1.13062
1.10722
1.08471
1.06305
1.04218
1.02204
1.00258
0.983742
0.965482
0.947749
0.930492
0.913668
0.897239
0.881177
0.865461
0.850072
0.834996
0.82022
0.805733
0.791525
0.777587
1.44897
1.42621
1.3973
1.36867
1.34168
1.31518
1.28823
1.26087
1.23359
1.20686
1.18089
1.15577
1.13153
1.10815
1.08563
1.06393
1.04302
1.02282
1.00331
0.984416
0.966103
0.948318
0.931014
0.914145
0.897675
0.881574
0.865822
0.8504
0.835294
0.82049
0.805978
0.791747
0.777785
1.42794
1.41511
1.39451
1.36965
1.34343
1.31697
1.29036
1.26353
1.23665
1.21005
1.18402
1.15874
1.1343
1.11072
1.08798
1.06606
1.04492
1.02452
1.0048
0.985732
0.967258
0.949328
0.931897
0.914918
0.898353
0.882173
0.866354
0.850879
0.835727
0.820882
0.80633
0.792057
0.778051
1.41946
1.40974
1.39248
1.36955
1.34384
1.31741
1.29091
1.26436
1.23774
1.21125
1.18521
1.15987
1.13536
1.11171
1.0889
1.0669
1.04569
1.02521
1.00542
0.986292
0.967759
0.949776
0.932298
0.915283
0.898692
0.88249
0.866651
0.851154
0.835981
0.821116
0.806543
0.792251
0.778229
1.41946
1.40974
1.39248
1.36955
1.34384
1.31741
1.29091
1.26436
1.23774
1.21125
1.18521
1.15987
1.13536
1.11171
1.0889
1.0669
1.04569
1.02521
1.00542
0.986292
0.967759
0.949776
0.932298
0.915283
0.898692
0.88249
0.866651
0.851154
0.835981
0.821116
0.806543
0.792251
0.778229
1.42794
1.41511
1.39451
1.36965
1.34343
1.31697
1.29036
1.26353
1.23665
1.21005
1.18402
1.15874
1.1343
1.11072
1.08798
1.06606
1.04492
1.02452
1.0048
0.985732
0.967258
0.949328
0.931897
0.914918
0.898353
0.882173
0.866354
0.850879
0.835727
0.820882
0.80633
0.792057
0.778051
1.44897
1.42621
1.3973
1.36867
1.34168
1.31518
1.28823
1.26087
1.23359
1.20686
1.18089
1.15577
1.13153
1.10815
1.08563
1.06393
1.04302
1.02282
1.00331
0.984416
0.966103
0.948318
0.931014
0.914145
0.897675
0.881574
0.865822
0.8504
0.835294
0.82049
0.805978
0.791747
0.777785
1.49958
1.45017
1.40588
1.37235
1.34445
1.31726
1.2893
1.26104
1.23321
1.2062
1.1801
1.15491
1.13062
1.10722
1.08471
1.06305
1.04218
1.02204
1.00258
0.983742
0.965482
0.947749
0.930492
0.913668
0.897239
0.881177
0.865461
0.850072
0.834996
0.82022
0.805733
0.791525
0.777587
1.49832
1.44899
1.40485
1.3715
1.3438
1.31679
1.28899
1.26084
1.2331
1.20616
1.18013
1.15498
1.13072
1.10735
1.08486
1.06321
1.04234
1.02221
1.00275
0.983914
0.965652
0.947914
0.930653
0.913823
0.897388
0.881319
0.865596
0.850203
0.835123
0.820346
0.80586
0.791654
0.777719
1.44771
1.42502
1.39625
1.3678
1.34101
1.3147
1.2879
1.26066
1.23348
1.20683
1.18092
1.15585
1.13164
1.10829
1.08578
1.0641
1.04319
1.023
1.00348
0.984591
0.966274
0.948485
0.931175
0.9143
0.897823
0.881716
0.865957
0.85053
0.83542
0.820615
0.806104
0.791874
0.777916
1.42667
1.41391
1.39344
1.36877
1.34275
1.31649
1.29003
1.26333
1.23655
1.21002
1.18405
1.15882
1.13442
1.11086
1.08814
1.06623
1.0451
1.0247
1.00498
0.985909
0.96743
0.949496
0.932058
0.915072
0.898502
0.882315
0.866491
0.85101
0.835855
0.821008
0.806455
0.792183
0.778178
1.41818
1.40854
1.39141
1.36866
1.34316
1.31692
1.29059
1.26416
1.23763
1.21122
1.18525
1.15996
1.13549
1.11186
1.08907
1.06708
1.04587
1.02539
1.00561
0.986472
0.967933
0.949944
0.932459
0.915438
0.898841
0.882634
0.866789
0.851287
0.836111
0.821243
0.806669
0.792376
0.778355
1.41818
1.40854
1.39141
1.36866
1.34316
1.31692
1.29059
1.26416
1.23763
1.21122
1.18525
1.15996
1.13549
1.11186
1.08907
1.06708
1.04587
1.02539
1.00561
0.986472
0.967933
0.949944
0.932459
0.915438
0.898841
0.882634
0.866789
0.851287
0.836111
0.821243
0.806669
0.792376
0.778355
1.42667
1.41391
1.39344
1.36877
1.34275
1.31649
1.29003
1.26333
1.23655
1.21002
1.18405
1.15882
1.13442
1.11086
1.08814
1.06623
1.0451
1.0247
1.00498
0.985909
0.96743
0.949496
0.932058
0.915072
0.898502
0.882315
0.866491
0.85101
0.835855
0.821008
0.806455
0.792183
0.778178
1.44771
1.42502
1.39625
1.3678
1.34101
1.3147
1.2879
1.26066
1.23348
1.20683
1.18092
1.15585
1.13164
1.10829
1.08578
1.0641
1.04319
1.023
1.00348
0.984591
0.966274
0.948485
0.931175
0.9143
0.897823
0.881716
0.865957
0.85053
0.83542
0.820615
0.806104
0.791874
0.777916
1.49832
1.44899
1.40485
1.3715
1.3438
1.31679
1.28899
1.26084
1.2331
1.20616
1.18013
1.15498
1.13072
1.10735
1.08486
1.06321
1.04234
1.02221
1.00275
0.983914
0.965652
0.947914
0.930653
0.913823
0.897388
0.881319
0.865596
0.850203
0.835123
0.820346
0.80586
0.791654
0.777719
1.49832
1.44899
1.40485
1.3715
1.3438
1.31679
1.28899
1.26084
1.2331
1.20616
1.18013
1.15498
1.13072
1.10735
1.08486
1.06321
1.04234
1.02221
1.00275
0.983914
0.965652
0.947914
0.930653
0.913823
0.897388
0.881319
0.865596
0.850203
0.835123
0.820346
0.80586
0.791654
0.777719
1.44771
1.42502
1.39625
1.3678
1.34101
1.3147
1.2879
1.26066
1.23348
1.20683
1.18092
1.15585
1.13164
1.10829
1.08578
1.0641
1.04319
1.023
1.00348
0.984591
0.966274
0.948485
0.931175
0.9143
0.897823
0.881716
0.865957
0.85053
0.83542
0.820615
0.806104
0.791874
0.777916
1.42667
1.41391
1.39344
1.36877
1.34275
1.31649
1.29003
1.26333
1.23655
1.21002
1.18405
1.15882
1.13442
1.11086
1.08814
1.06623
1.0451
1.0247
1.00498
0.985909
0.96743
0.949496
0.932058
0.915072
0.898502
0.882315
0.866491
0.85101
0.835855
0.821008
0.806455
0.792183
0.778178
1.41818
1.40854
1.39141
1.36866
1.34316
1.31692
1.29059
1.26416
1.23763
1.21122
1.18525
1.15996
1.13549
1.11186
1.08907
1.06708
1.04587
1.02539
1.00561
0.986472
0.967933
0.949944
0.932459
0.915438
0.898841
0.882634
0.866789
0.851287
0.836111
0.821243
0.806669
0.792376
0.778355
1.41818
1.40854
1.39141
1.36866
1.34316
1.31692
1.29059
1.26416
1.23763
1.21122
1.18525
1.15996
1.13549
1.11186
1.08907
1.06708
1.04587
1.02539
1.00561
0.986472
0.967933
0.949944
0.932459
0.915438
0.898841
0.882634
0.866789
0.851287
0.836111
0.821243
0.806669
0.792376
0.778355
1.42667
1.41391
1.39344
1.36877
1.34275
1.31649
1.29003
1.26333
1.23655
1.21002
1.18405
1.15882
1.13442
1.11086
1.08814
1.06623
1.0451
1.0247
1.00498
0.985909
0.96743
0.949496
0.932058
0.915072
0.898502
0.882315
0.866491
0.85101
0.835855
0.821008
0.806455
0.792183
0.778178
1.44771
1.42502
1.39625
1.3678
1.34101
1.3147
1.2879
1.26066
1.23348
1.20683
1.18092
1.15585
1.13164
1.10829
1.08578
1.0641
1.04319
1.023
1.00348
0.984591
0.966274
0.948485
0.931175
0.9143
0.897823
0.881716
0.865957
0.85053
0.83542
0.820615
0.806104
0.791874
0.777916
1.49832
1.44899
1.40485
1.3715
1.3438
1.31679
1.28899
1.26084
1.2331
1.20616
1.18013
1.15498
1.13072
1.10735
1.08486
1.06321
1.04234
1.02221
1.00275
0.983914
0.965652
0.947914
0.930653
0.913823
0.897388
0.881319
0.865596
0.850203
0.835123
0.820346
0.80586
0.791654
0.777719
1.49958
1.45017
1.40588
1.37235
1.34445
1.31726
1.2893
1.26104
1.23321
1.2062
1.1801
1.15491
1.13062
1.10722
1.08471
1.06305
1.04218
1.02204
1.00258
0.983742
0.965482
0.947749
0.930492
0.913668
0.897239
0.881177
0.865461
0.850072
0.834996
0.82022
0.805733
0.791525
0.777587
1.44897
1.42621
1.3973
1.36867
1.34168
1.31518
1.28823
1.26087
1.23359
1.20686
1.18089
1.15577
1.13153
1.10815
1.08563
1.06393
1.04302
1.02282
1.00331
0.984416
0.966103
0.948318
0.931014
0.914145
0.897675
0.881574
0.865822
0.8504
0.835294
0.82049
0.805978
0.791747
0.777785
1.42794
1.41511
1.39451
1.36965
1.34343
1.31697
1.29036
1.26353
1.23665
1.21005
1.18402
1.15874
1.1343
1.11072
1.08798
1.06606
1.04492
1.02452
1.0048
0.985732
0.967258
0.949328
0.931897
0.914918
0.898353
0.882173
0.866354
0.850879
0.835727
0.820882
0.80633
0.792057
0.778051
1.41946
1.40974
1.39248
1.36955
1.34384
1.31741
1.29091
1.26436
1.23774
1.21125
1.18521
1.15987
1.13536
1.11171
1.0889
1.0669
1.04569
1.02521
1.00542
0.986292
0.967759
0.949776
0.932298
0.915283
0.898692
0.88249
0.866651
0.851154
0.835981
0.821116
0.806543
0.792251
0.778229
1.41946
1.40974
1.39248
1.36955
1.34384
1.31741
1.29091
1.26436
1.23774
1.21125
1.18521
1.15987
1.13536
1.11171
1.0889
1.0669
1.04569
1.02521
1.00542
0.986292
0.967759
0.949776
0.932298
0.915283
0.898692
0.88249
0.866651
0.851154
0.835981
0.821116
0.806543
0.792251
0.778229
1.42794
1.41511
1.39451
1.36965
1.34343
1.31697
1.29036
1.26353
1.23665
1.21005
1.18402
1.15874
1.1343
1.11072
1.08798
1.06606
1.04492
1.02452
1.0048
0.985732
0.967258
0.949328
0.931897
0.914918
0.898353
0.882173
0.866354
0.850879
0.835727
0.820882
0.80633
0.792057
0.778051
1.44897
1.42621
1.3973
1.36867
1.34168
1.31518
1.28823
1.26087
1.23359
1.20686
1.18089
1.15577
1.13153
1.10815
1.08563
1.06393
1.04302
1.02282
1.00331
0.984416
0.966103
0.948318
0.931014
0.914145
0.897675
0.881574
0.865822
0.8504
0.835294
0.82049
0.805978
0.791747
0.777785
1.49958
1.45017
1.40588
1.37235
1.34445
1.31726
1.2893
1.26104
1.23321
1.2062
1.1801
1.15491
1.13062
1.10722
1.08471
1.06305
1.04218
1.02204
1.00258
0.983742
0.965482
0.947749
0.930492
0.913668
0.897239
0.881177
0.865461
0.850072
0.834996
0.82022
0.805733
0.791525
0.777587
1.50216
1.45258
1.40799
1.37406
1.34573
1.31817
1.28992
1.26142
1.23341
1.20625
1.18003
1.15475
1.13039
1.10695
1.08441
1.06272
1.04184
1.02169
1.00223
0.983396
0.965143
0.947418
0.930171
0.913358
0.896942
0.880894
0.86519
0.849813
0.834745
0.819972
0.805483
0.791271
0.777326
1.45157
1.42865
1.39944
1.37042
1.343
1.31611
1.28885
1.26125
1.23379
1.20691
1.18082
1.1556
1.13129
1.10786
1.08531
1.0636
1.04267
1.02247
1.00295
0.984066
0.96576
0.947985
0.930691
0.913834
0.897377
0.88129
0.865551
0.850141
0.835043
0.820242
0.805728
0.791492
0.777526
1.43056
1.41757
1.39668
1.37143
1.34477
1.31791
1.29098
1.26391
1.23684
1.21008
1.18392
1.15855
1.13404
1.11041
1.08765
1.06571
1.04456
1.02415
1.00444
0.985376
0.96691
0.948991
0.931571
0.914606
0.898056
0.88189
0.866084
0.850619
0.835475
0.820633
0.80608
0.791804
0.777794
1.42208
1.41221
1.39465
1.37133
1.34519
1.31834
1.29153
1.26473
1.23792
1.21127
1.18511
1.15967
1.13509
1.11139
1.08855
1.06654
1.04532
1.02484
1.00506
0.985933
0.967408
0.949435
0.93197
0.914969
0.898393
0.882206
0.86638
0.850893
0.835727
0.820865
0.806292
0.791998
0.777973
1.42208
1.41221
1.39465
1.37133
1.34519
1.31834
1.29153
1.26473
1.23792
1.21127
1.18511
1.15967
1.13509
1.11139
1.08855
1.06654
1.04532
1.02484
1.00506
0.985933
0.967408
0.949435
0.93197
0.914969
0.898393
0.882206
0.86638
0.850893
0.835727
0.820865
0.806292
0.791998
0.777973
1.43056
1.41757
1.39668
1.37143
1.34477
1.31791
1.29098
1.26391
1.23684
1.21008
1.18392
1.15855
1.13404
1.11041
1.08765
1.06571
1.04456
1.02415
1.00444
0.985376
0.96691
0.948991
0.931571
0.914606
0.898056
0.88189
0.866084
0.850619
0.835475
0.820633
0.80608
0.791804
0.777794
1.45157
1.42865
1.39944
1.37042
1.343
1.31611
1.28885
1.26125
1.23379
1.20691
1.18082
1.1556
1.13129
1.10786
1.08531
1.0636
1.04267
1.02247
1.00295
0.984066
0.96576
0.947985
0.930691
0.913834
0.897377
0.88129
0.865551
0.850141
0.835043
0.820242
0.805728
0.791492
0.777526
1.50216
1.45258
1.40799
1.37406
1.34573
1.31817
1.28992
1.26142
1.23341
1.20625
1.18003
1.15475
1.13039
1.10695
1.08441
1.06272
1.04184
1.02169
1.00223
0.983396
0.965143
0.947418
0.930171
0.913358
0.896942
0.880894
0.86519
0.849813
0.834745
0.819972
0.805483
0.791271
0.777326
1.50625
1.45637
1.41124
1.37662
1.34761
1.31947
1.29078
1.26194
1.23365
1.20627
1.17988
1.15447
1.13002
1.10652
1.08393
1.06222
1.04132
1.02116
1.0017
0.982877
0.964634
0.946922
0.929692
0.912898
0.8965
0.880473
0.86479
0.84943
0.834374
0.819606
0.805116
0.790896
0.776943
1.45569
1.43248
1.40276
1.37305
1.34494
1.31744
1.28972
1.26177
1.23404
1.20692
1.18065
1.1553
1.13089
1.10741
1.08482
1.06307
1.04213
1.02193
1.00242
0.983538
0.965244
0.947483
0.930207
0.913369
0.896932
0.880868
0.86515
0.849758
0.834672
0.819876
0.80536