/*--------------------------------*- C++ -*----------------------------------*\
| =========                 |                                                 |
| \\      /  F ield         | OpenFOAM: The Open Source CFD Toolbox           |
|  \\    /   O peration     | Version:  2412                                  |
|   \\  /    A nd           | Website:  www.openfoam.com                      |
|    \\/     M anipulation  |                                                 |
\*---------------------------------------------------------------------------*/
FoamFile
{
    version     2.0;
    format      ascii;
    arch        "LSB;label=32;scalar=64";
    class       surfaceScalarField;
    location    "2.006708";
    object      phi;
}
// * * * * * * * * * * * * * * * * * * * * * * * * * * * * * * * * * * * * * //

dimensions      [0 3 -1 0 0 0 0];

oriented        oriented;

internalField   nonuniform List<scalar> 
45040
(
0.00235221
7.23073e-05
7.54835e-05
0.00212072
0.000111383
0.000120102
0.0018887
0.000109477
0.000122542
0.00167002
0.000101255
0.000117426
0.00146946
9.14372e-05
0.000109121
0.00129365
7.89944e-05
9.68167e-05
0.00114667
6.49615e-05
8.20193e-05
0.00102791
5.15248e-05
6.72346e-05
0.000933603
4.01962e-05
5.41148e-05
0.000859002
3.14014e-05
4.31996e-05
0.000799586
2.49595e-05
3.44559e-05
0.000751504
2.04619e-05
2.76206e-05
0.000711741
1.74305e-05
2.23325e-05
0.000678111
1.54089e-05
1.82214e-05
0.000649112
1.40284e-05
1.49706e-05
0.00062374
1.3031e-05
1.23406e-05
0.000601329
1.22457e-05
1.01657e-05
0.000581427
1.156e-05
8.34156e-06
0.000563702
1.09142e-05
6.81047e-06
0.000547869
1.02964e-05
5.53675e-06
0.000533673
9.71552e-06
4.48062e-06
0.000520905
9.17646e-06
3.59124e-06
0.000509414
8.6773e-06
2.81426e-06
0.000499093
8.21448e-06
2.10659e-06
0.000489856
7.78959e-06
1.44688e-06
0.000481607
7.41534e-06
8.33945e-07
0.000474232
7.1019e-06
2.73138e-07
0.000467539
6.81784e-06
-1.25292e-07
0.000461396
6.54355e-06
-3.9988e-07
0.000455731
6.25963e-06
-5.95011e-07
0.000450512
5.92646e-06
-7.07382e-07
0.000445744
5.5197e-06
-7.51827e-07
5.03503e-06
-7.43824e-07
0.000441453
0.00246447
3.20834e-05
7.57509e-05
0.00237893
7.12904e-05
0.000125633
0.00227411
8.28923e-05
0.00013141
0.00216432
8.14042e-05
0.000129643
0.00205105
7.76209e-05
0.000127086
0.00193622
7.21012e-05
0.000121716
0.00182368
6.40364e-05
0.000113469
0.00171711
5.43458e-05
0.000103747
0.00161874
4.47083e-05
9.3864e-05
0.00152949
3.62378e-05
8.4405e-05
0.00144959
2.93113e-05
7.55538e-05
0.00137877
2.39104e-05
6.73734e-05
0.00131644
1.98669e-05
5.98879e-05
0.00126181
1.69417e-05
5.31024e-05
0.00121395
1.4871e-05
4.70097e-05
0.00117199
1.34181e-05
4.15818e-05
0.00113508
1.23982e-05
3.67509e-05
0.00110254
1.16662e-05
3.24326e-05
0.00107377
1.11038e-05
2.85856e-05
0.00104823
1.06287e-05
2.52105e-05
0.00102545
1.02086e-05
2.22815e-05
0.00100506
9.8424e-06
1.9721e-05
0.000986772
9.53469e-06
1.74346e-05
0.00097036
9.28328e-06
1.53435e-05
0.000955663
9.07343e-06
1.34124e-05
0.000942535
8.87189e-06
1.1672e-05
0.000930814
8.63855e-06
1.01846e-05
0.000920321
8.34736e-06
8.9628e-06
0.000910907
8.00969e-06
7.94846e-06
0.000902474
7.65527e-06
7.0368e-06
0.00089497
7.30164e-06
6.12915e-06
0.000888365
6.94848e-06
5.176e-06
6.57976e-06
4.18004e-06
0.00088264
0.00244436
1.24843e-05
7.52381e-05
0.00235881
3.18721e-05
0.00012497
0.0022714
4.07818e-05
0.000129517
0.00218546
4.10243e-05
0.000126325
0.00210004
3.95174e-05
0.000123522
0.00201537
3.76187e-05
0.00011915
0.00193244
3.45818e-05
0.000112384
0.00185237
3.03921e-05
0.000104021
0.00177605
2.57953e-05
9.52381e-05
0.00170409
2.1496e-05
8.67036e-05
0.00163695
1.78128e-05
7.86314e-05
0.00157499
1.47949e-05
7.10804e-05
0.00151838
1.23988e-05
6.40804e-05
0.00146712
1.05511e-05
5.76532e-05
0.00142102
9.15773e-06
5.18116e-05
0.00137976
8.12291e-06
4.65528e-05
0.00134295
7.36652e-06
4.18445e-05
0.00131017
6.81697e-06
3.76288e-05
0.00128101
6.40789e-06
3.38536e-05
0.00125506
6.0824e-06
3.04972e-05
0.00123191
5.81463e-06
2.75392e-05
0.00121122
5.60265e-06
2.49313e-05
0.0011927
5.45069e-06
2.26042e-05
0.00117614
5.3556e-06
2.04914e-05
0.00116135
5.29675e-06
1.85614e-05
0.00114817
5.23513e-06
1.68202e-05
0.00113638
5.12753e-06
1.52969e-05
0.00112578
4.94984e-06
1.40052e-05
0.00111616
4.71443e-06
1.29106e-05
0.00110743
4.45686e-06
1.1932e-05
0.00109954
4.20918e-06
1.09781e-05
0.00109252
3.98728e-06
9.98562e-06
3.79128e-06
8.92718e-06
0.00108638
0.00243729
6.00953e-15
7.51962e-05
0.00234392
2.35848e-14
0.000125236
0.00225514
4.02594e-14
0.000129562
0.00217049
4.66572e-14
0.000125677
0.00208774
5.56159e-14
0.000122268
0.00200764
7.95805e-14
0.000117716
0.00193122
9.81082e-14
0.000111006
0.0018589
1.1797e-13
0.000102708
0.00179076
1.56033e-13
9.39405e-05
0.00172682
2.14077e-13
8.54323e-05
0.0016672
2.71667e-13
7.74312e-05
0.00161202
3.15188e-13
6.998e-05
0.00156133
3.89657e-13
6.30832e-05
0.00151513
5.3627e-13
5.6751e-05
0.00147329
7.05792e-13
5.0996e-05
0.0014356
7.65819e-13
4.58221e-05
0.00140175
7.87863e-13
4.12115e-05
0.00137145
9.85558e-13
3.71143e-05
0.00134439
1.41695e-12
3.34689e-05
0.00132024
1.89174e-12
3.02374e-05
0.00129865
2.21129e-12
2.74053e-05
0.00127932
2.51478e-12
2.49252e-05
0.00126204
3.0366e-12
2.27381e-05
0.0012466
3.88969e-12
2.07894e-05
0.00123286
4.88755e-12
1.9037e-05
0.00122064
5.41761e-12
1.74579e-05
0.00120972
4.65875e-12
1.60497e-05
0.00119985
2.80247e-12
1.4814e-05
0.00119083
-8.5037e-14
1.37374e-05
0.00118251
-2.39235e-12
1.27789e-05
0.00117484
-2.72679e-12
1.18773e-05
0.00116785
2.14071e-13
1.09744e-05
7.09406e-12
1.00332e-05
0.00116161
0.00243729
-1.24843e-05
7.51962e-05
0.00234392
-3.18721e-05
0.000125236
0.00225514
-4.07818e-05
0.000129562
0.00217049
-4.10243e-05
0.000125677
0.00208774
-3.95174e-05
0.000122268
0.00200764
-3.76187e-05
0.000117716
0.00193122
-3.45818e-05
0.000111006
0.0018589
-3.03921e-05
0.000102708
0.00179076
-2.57953e-05
9.39405e-05
0.00172682
-2.1496e-05
8.54323e-05
0.0016672
-1.78128e-05
7.74312e-05
0.00161202
-1.47949e-05
6.998e-05
0.00156133
-1.23988e-05
6.30832e-05
0.00151513
-1.05511e-05
5.6751e-05
0.00147329
-9.15772e-06
5.0996e-05
0.0014356
-8.12291e-06
4.58221e-05
0.00140175
-7.36651e-06
4.12115e-05
0.00137145
-6.81697e-06
3.71143e-05
0.00134439
-6.40789e-06
3.34689e-05
0.00132024
-6.0824e-06
3.02374e-05
0.00129865
-5.81463e-06
2.74053e-05
0.00127932
-5.60265e-06
2.49252e-05
0.00126204
-5.45068e-06
2.27381e-05
0.0012466
-5.35559e-06
2.07894e-05
0.00123286
-5.29674e-06
1.9037e-05
0.00122064
-5.23512e-06
1.74579e-05
0.00120972
-5.12752e-06
1.60497e-05
0.00119985
-4.94983e-06
1.4814e-05
0.00119083
-4.71443e-06
1.37374e-05
0.00118251
-4.45686e-06
1.27789e-05
0.00117484
-4.20918e-06
1.18773e-05
0.00116785
-3.98728e-06
1.09744e-05
-3.79127e-06
1.00332e-05
0.00116161
0.00244436
-3.20834e-05
7.52381e-05
0.00235881
-7.12904e-05
0.00012497
0.0022714
-8.28923e-05
0.000129517
0.00218546
-8.14042e-05
0.000126325
0.00210004
-7.76209e-05
0.000123522
0.00201537
-7.21012e-05
0.00011915
0.00193244
-6.40364e-05
0.000112384
0.00185237
-5.43458e-05
0.000104021
0.00177605
-4.47083e-05
9.52381e-05
0.00170409
-3.62378e-05
8.67036e-05
0.00163695
-2.93113e-05
7.86314e-05
0.00157499
-2.39104e-05
7.10804e-05
0.00151838
-1.98669e-05
6.40804e-05
0.00146712
-1.69417e-05
5.76532e-05
0.00142102
-1.4871e-05
5.18116e-05
0.00137976
-1.34181e-05
4.65528e-05
0.00134295
-1.23982e-05
4.18445e-05
0.00131017
-1.16662e-05
3.76288e-05
0.00128101
-1.11038e-05
3.38536e-05
0.00125506
-1.06287e-05
3.04972e-05
0.00123191
-1.02086e-05
2.75392e-05
0.00121122
-9.8424e-06
2.49313e-05
0.0011927
-9.53469e-06
2.26042e-05
0.00117614
-9.28328e-06
2.04914e-05
0.00116135
-9.07343e-06
1.85614e-05
0.00114817
-8.87189e-06
1.68202e-05
0.00113638
-8.63854e-06
1.52969e-05
0.00112578
-8.34736e-06
1.40052e-05
0.00111616
-8.00968e-06
1.29106e-05
0.00110743
-7.65526e-06
1.1932e-05
0.00109954
-7.30164e-06
1.09781e-05
0.00109252
-6.94847e-06
9.98561e-06
-6.57974e-06
8.92717e-06
0.00108638
0.00246447
-7.23073e-05
7.57509e-05
0.00237893
-0.000111383
0.000125633
0.00227411
-0.000109477
0.00013141
0.00216432
-0.000101255
0.000129643
0.00205105
-9.14372e-05
0.000127086
0.00193622
-7.89944e-05
0.000121716
0.00182368
-6.49615e-05
0.000113469
0.00171711
-5.15248e-05
0.000103747
0.00161874
-4.01962e-05
9.3864e-05
0.00152949
-3.14014e-05
8.4405e-05
0.00144959
-2.49595e-05
7.55538e-05
0.00137877
-2.04619e-05
6.73734e-05
0.00131644
-1.74305e-05
5.98879e-05
0.00126181
-1.54089e-05
5.31024e-05
0.00121395
-1.40284e-05
4.70097e-05
0.00117199
-1.3031e-05
4.15818e-05
0.00113508
-1.22457e-05
3.67509e-05
0.00110254
-1.156e-05
3.24326e-05
0.00107377
-1.09142e-05
2.85856e-05
0.00104823
-1.02964e-05
2.52105e-05
0.00102545
-9.71552e-06
2.22815e-05
0.00100506
-9.17646e-06
1.9721e-05
0.000986772
-8.6773e-06
1.74346e-05
0.00097036
-8.21448e-06
1.53435e-05
0.000955663
-7.78959e-06
1.34124e-05
0.000942535
-7.41534e-06
1.16721e-05
0.000930814
-7.1019e-06
1.01846e-05
0.000920321
-6.81783e-06
8.9628e-06
0.000910907
-6.54354e-06
7.94846e-06
0.000902474
-6.25962e-06
7.0368e-06
0.00089497
-5.92645e-06
6.12914e-06
0.000888365
-5.51969e-06
5.176e-06
-5.03501e-06
4.18005e-06
0.00088264
0.00235221
7.54835e-05
0.00212072
0.000120102
0.0018887
0.000122542
0.00167002
0.000117426
0.00146946
0.000109121
0.00129365
9.68167e-05
0.00114667
8.20193e-05
0.00102791
6.72346e-05
0.000933603
5.41148e-05
0.000859002
4.31996e-05
0.000799586
3.44559e-05
0.000751504
2.76206e-05
0.000711741
2.23325e-05
0.000678111
1.82214e-05
0.000649112
1.49706e-05
0.00062374
1.23406e-05
0.000601329
1.01657e-05
0.000581427
8.34156e-06
0.000563702
6.81047e-06
0.000547869
5.53675e-06
0.000533673
4.48062e-06
0.000520905
3.59124e-06
0.000509414
2.81426e-06
0.000499093
2.10659e-06
0.000489856
1.44688e-06
0.000481607
8.33948e-07
0.000474232
2.73143e-07
0.000467539
-1.25288e-07
0.000461396
-3.99875e-07
0.000455731
-5.95004e-07
0.000450512
-7.07373e-07
0.000445744
-7.51815e-07
-7.43807e-07
0.000441453
0.00246464
7.25528e-05
3.82882e-05
0.00237893
0.000116777
8.90372e-05
0.00227315
0.000118123
0.000110201
0.00216254
0.000112959
0.000115075
0.00204876
0.000108229
0.000114671
0.00193365
0.000101844
0.000110084
0.00182111
9.34316e-05
0.000101132
0.00171496
8.41347e-05
8.92471e-05
0.0016175
7.51368e-05
7.64417e-05
0.00152961
6.69467e-05
6.41343e-05
0.00145138
5.96587e-05
5.30334e-05
0.00138235
5.32319e-05
4.34145e-05
0.00132177
4.7591e-05
3.53203e-05
0.00126869
4.26559e-05
2.86481e-05
0.0012221
3.83522e-05
2.32069e-05
0.00118106
3.46055e-05
1.87776e-05
0.00114474
3.13251e-05
1.51626e-05
0.00111246
2.84161e-05
1.2204e-05
0.00108367
2.58255e-05
9.77729e-06
0.00105788
2.35484e-05
7.77844e-06
0.00103467
2.1568e-05
6.12329e-06
0.00101368
1.98217e-05
4.75122e-06
0.00099466
1.8233e-05
3.60597e-06
0.000977394
1.67573e-05
2.6151e-06
0.000961736
1.53987e-05
1.7063e-06
0.000947523
1.42081e-05
8.39034e-07
0.00093464
1.32875e-05
-1.31281e-07
0.000923019
1.26745e-05
-1.17896e-06
0.000912551
1.22697e-05
-2.20221e-06
0.000903172
1.19373e-05
-3.15256e-06
0.000894857
1.15488e-05
-3.94184e-06
0.000887599
1.10127e-05
-4.50631e-06
1.02958e-05
-4.81899e-06
0.000881378
0.00257803
3.20178e-05
3.82563e-05
0.00265205
7.50286e-05
9.33594e-05
0.0026908
9.09675e-05
0.000119817
0.00271174
9.2576e-05
0.000129083
0.00272153
9.19847e-05
0.000133548
0.00271858
9.09935e-05
0.000135508
0.00270309
8.82647e-05
0.000134134
0.00267776
8.35833e-05
0.00012962
0.00264578
7.78678e-05
0.000123117
0.00260941
7.20254e-05
0.000115696
0.00257016
6.64853e-05
0.000107979
0.00252918
6.13332e-05
0.00010025
0.00248746
5.65501e-05
9.2649e-05
0.00244581
5.21331e-05
8.5279e-05
0.00240483
4.80969e-05
7.82372e-05
0.00236499
4.44349e-05
7.15998e-05
0.00232656
4.11087e-05
6.53939e-05
0.00228972
3.80787e-05
5.9611e-05
0.00225454
3.5331e-05
5.42545e-05
0.00222111
3.28613e-05
4.93348e-05
0.00218949
3.06427e-05
4.48266e-05
0.00215973
2.86177e-05
4.06837e-05
0.0021318
2.67259e-05
3.68712e-05
0.00210559
2.49532e-05
3.3352e-05
0.00208096
2.33387e-05
3.01086e-05
0.00205773
2.1938e-05
2.71668e-05
0.00203588
2.0791e-05
2.45336e-05
0.00201552
1.98781e-05
2.21251e-05
0.00199682
1.91004e-05
1.98089e-05
0.00198
1.83397e-05
1.74581e-05
0.00196518
1.75111e-05
1.4983e-05
0.00195243
1.65813e-05
1.23647e-05
1.55636e-05
9.65868e-06
0.00194168
0.00255712
1.23943e-05
3.7745e-05
0.00263096
3.33189e-05
9.28337e-05
0.00268787
4.46451e-05
0.000118935
0.00273248
4.6812e-05
0.000127478
0.00276975
4.68596e-05
0.000131374
0.00279919
4.70488e-05
0.000133658
0.00281975
4.67062e-05
0.000133384
0.00283181
4.52649e-05
0.000130275
0.00283674
4.29969e-05
0.000125177
0.00283592
4.04437e-05
0.000119109
0.00283038
3.79406e-05
0.000112719
0.00282092
3.55734e-05
0.000106297
0.00280827
3.33273e-05
9.99556e-05
0.0027931
3.11973e-05
9.37576e-05
0.00277604
2.92042e-05
8.77637e-05
0.00275763
2.73592e-05
8.20385e-05
0.0027383
2.56463e-05
7.66334e-05
0.00271839
2.40487e-05
7.1571e-05
0.00269815
2.25716e-05
6.68503e-05
0.00267783
2.12223e-05
6.24609e-05
0.00265765
1.9984e-05
5.83775e-05
0.00263781
1.88288e-05
5.4558e-05
0.00261844
1.77291e-05
5.09676e-05
0.00259961
1.66803e-05
4.75959e-05
0.00258135
1.57128e-05
4.44512e-05
0.00256368
1.48744e-05
4.15483e-05
0.00254669
1.41944e-05
3.88932e-05
0.00253046
1.36493e-05
3.64554e-05
0.00251515
1.31631e-05
3.41567e-05
0.00250088
1.26515e-05
3.18941e-05
0.00248774
1.20597e-05
2.9571e-05
0.00247581
1.13754e-05
2.71228e-05
1.06225e-05
2.45266e-05
0.00246515
0.00255004
5.38808e-15
3.75503e-05
0.00261602
2.37901e-14
9.25744e-05
0.00267161
4.34246e-14
0.000118616
0.00271728
5.62137e-14
0.00012682
0.00275616
6.46202e-14
0.000130251
0.00278872
1.09678e-13
0.0001322
0.00281464
1.38371e-13
0.000131793
0.002834
6.86819e-14
0.000128619
0.0028475
2.39306e-15
0.000123432
0.00285611
1.82256e-13
0.000117273
0.00286063
5.63634e-13
0.000110849
0.00286171
5.74154e-13
0.000104477
0.00285985
1.15624e-13
9.82643e-05
0.00285554
-2.82017e-13
9.2256e-05
0.00284925
3.3985e-13
8.64988e-05
0.00284138
1.6136e-12
8.10461e-05
0.00283229
1.92246e-12
7.59452e-05
0.00282224
7.90561e-13
7.12169e-05
0.00281143
-4.75238e-13
6.68537e-05
0.00280005
1.89038e-13
6.28336e-05
0.00278832
2.79957e-12
5.91245e-05
0.00277639
4.97158e-12
5.56836e-05
0.00276438
4.16558e-12
5.24775e-05
0.00275236
9.69483e-13
4.94895e-05
0.0027404
-1.55101e-12
4.67113e-05
0.00272859
2.11015e-13
4.41368e-05
0.00271708
7.17286e-12
4.17583e-05
0.00270599
1.56676e-11
3.9551e-05
0.00269542
2.05434e-11
3.7467e-05
0.00268541
1.71006e-11
3.54407e-05
0.00267595
4.8365e-12
3.34005e-05
0.00266701
-1.25765e-11
3.1286e-05
-2.84632e-11
2.90599e-05
0.00265861
0.00255004
-1.23943e-05
3.75503e-05
0.00261602
-3.33189e-05
9.25744e-05
0.00267161
-4.46451e-05
0.000118616
0.00271728
-4.6812e-05
0.00012682
0.00275616
-4.68596e-05
0.000130251
0.00278872
-4.70488e-05
0.0001322
0.00281464
-4.67062e-05
0.000131793
0.002834
-4.52649e-05
0.000128619
0.0028475
-4.29969e-05
0.000123432
0.00285611
-4.04437e-05
0.000117273
0.00286063
-3.79406e-05
0.000110849
0.00286171
-3.55734e-05
0.000104477
0.00285985
-3.33273e-05
9.82643e-05
0.00285554
-3.11973e-05
9.2256e-05
0.00284925
-2.92042e-05
8.64988e-05
0.00284138
-2.73592e-05
8.10461e-05
0.00283229
-2.56463e-05
7.59452e-05
0.00282224
-2.40487e-05
7.12169e-05
0.00281143
-2.25716e-05
6.68537e-05
0.00280005
-2.12223e-05
6.28336e-05
0.00278832
-1.9984e-05
5.91245e-05
0.00277639
-1.88288e-05
5.56836e-05
0.00276438
-1.77291e-05
5.24775e-05
0.00275236
-1.66803e-05
4.94895e-05
0.0027404
-1.57128e-05
4.67113e-05
0.00272859
-1.48744e-05
4.41368e-05
0.00271708
-1.41944e-05
4.17583e-05
0.00270599
-1.36493e-05
3.9551e-05
0.00269542
-1.31631e-05
3.7467e-05
0.00268541
-1.26515e-05
3.54407e-05
0.00267595
-1.20597e-05
3.34005e-05
0.00266701
-1.13754e-05
3.1286e-05
-1.06225e-05
2.90599e-05
0.00265861
0.00255712
-3.20178e-05
3.7745e-05
0.00263096
-7.50286e-05
9.28337e-05
0.00268787
-9.09675e-05
0.000118935
0.00273248
-9.2576e-05
0.000127478
0.00276975
-9.19847e-05
0.000131374
0.00279919
-9.09935e-05
0.000133658
0.00281975
-8.82647e-05
0.000133384
0.00283181
-8.35833e-05
0.000130275
0.00283674
-7.78678e-05
0.000125177
0.00283592
-7.20254e-05
0.000119109
0.00283038
-6.64853e-05
0.000112719
0.00282092
-6.13332e-05
0.000106297
0.00280827
-5.65501e-05
9.99556e-05
0.0027931
-5.21331e-05
9.37576e-05
0.00277604
-4.80969e-05
8.77637e-05
0.00275763
-4.44349e-05
8.20384e-05
0.0027383
-4.11087e-05
7.66334e-05
0.00271839
-3.80787e-05
7.1571e-05
0.00269815
-3.5331e-05
6.68503e-05
0.00267783
-3.28613e-05
6.24609e-05
0.00265765
-3.06427e-05
5.83775e-05
0.00263781
-2.86177e-05
5.4558e-05
0.00261844
-2.67259e-05
5.09676e-05
0.00259961
-2.49532e-05
4.75959e-05
0.00258135
-2.33387e-05
4.44512e-05
0.00256368
-2.1938e-05
4.15483e-05
0.00254669
-2.0791e-05
3.88932e-05
0.00253046
-1.98781e-05
3.64554e-05
0.00251515
-1.91004e-05
3.41568e-05
0.00250088
-1.83397e-05
3.18941e-05
0.00248774
-1.75111e-05
2.9571e-05
0.00247581
-1.65813e-05
2.71228e-05
-1.55636e-05
2.45266e-05
0.00246515
0.00257803
-7.25528e-05
3.82563e-05
0.00265205
-0.000116777
9.33594e-05
0.0026908
-0.000118123
0.000119817
0.00271174
-0.000112959
0.000129083
0.00272153
-0.000108229
0.000133548
0.00271858
-0.000101844
0.000135508
0.00270309
-9.34316e-05
0.000134134
0.00267776
-8.41347e-05
0.00012962
0.00264578
-7.51368e-05
0.000123117
0.00260941
-6.69467e-05
0.000115696
0.00257016
-5.96587e-05
0.000107979
0.00252918
-5.32319e-05
0.00010025
0.00248746
-4.7591e-05
9.2649e-05
0.00244581
-4.26559e-05
8.5279e-05
0.00240483
-3.83522e-05
7.82372e-05
0.00236499
-3.46055e-05
7.15998e-05
0.00232656
-3.13251e-05
6.53939e-05
0.00228972
-2.84161e-05
5.9611e-05
0.00225454
-2.58255e-05
5.42545e-05
0.00222111
-2.35484e-05
4.93348e-05
0.00218949
-2.1568e-05
4.48266e-05
0.00215973
-1.98217e-05
4.06837e-05
0.0021318
-1.8233e-05
3.68712e-05
0.00210559
-1.67573e-05
3.3352e-05
0.00208096
-1.53987e-05
3.01086e-05
0.00205773
-1.42081e-05
2.71668e-05
0.00203588
-1.32875e-05
2.45336e-05
0.00201552
-1.26745e-05
2.21251e-05
0.00199682
-1.22696e-05
1.98089e-05
0.00198
-1.19373e-05
1.74581e-05
0.00196518
-1.15488e-05
1.4983e-05
0.00195243
-1.10127e-05
1.23647e-05
-1.02958e-05
9.65866e-06
0.00194168
0.00246464
3.82882e-05
0.00237893
8.90372e-05
0.00227315
0.000110201
0.00216254
0.000115075
0.00204876
0.000114671
0.00193365
0.000110084
0.00182111
0.000101132
0.00171496
8.92471e-05
0.0016175
7.64417e-05
0.00152961
6.41343e-05
0.00145138
5.30334e-05
0.00138235
4.34145e-05
0.00132177
3.53203e-05
0.00126869
2.86481e-05
0.0012221
2.32069e-05
0.00118106
1.87776e-05
0.00114474
1.51626e-05
0.00111246
1.2204e-05
0.00108367
9.77729e-06
0.00105788
7.77844e-06
0.00103467
6.12329e-06
0.00101368
4.75122e-06
0.00099466
3.60597e-06
0.000977394
2.6151e-06
0.000961736
1.7063e-06
0.000947523
8.39034e-07
0.00093464
-1.31277e-07
0.000923019
-1.17895e-06
0.000912551
-2.20219e-06
0.000903172
-3.15255e-06
0.000894857
-3.94182e-06
0.000887599
-4.50629e-06
-4.81897e-06
0.000881378
0.00244399
7.20525e-05
2.2241e-05
0.00235721
0.000116087
5.97321e-05
0.00226777
0.000116191
8.34523e-05
0.00218046
0.000109604
9.27762e-05
0.00209489
0.00010463
9.56199e-05
0.00201083
9.92238e-05
9.49142e-05
0.0019289
9.22816e-05
9.07843e-05
0.00185016
8.43323e-05
8.36508e-05
0.00177557
7.63712e-05
7.4663e-05
0.00170573
6.89407e-05
6.50356e-05
0.00164098
6.21635e-05
5.56141e-05
0.00158152
5.60205e-05
4.68563e-05
0.00152738
5.04792e-05
3.89834e-05
0.00147842
4.55118e-05
3.2091e-05
0.00143436
4.10906e-05
2.61768e-05
0.0013948
3.71855e-05
2.11565e-05
0.0013593
3.3746e-05
1.69197e-05
0.00132744
3.07006e-05
1.33631e-05
0.00129883
2.79988e-05
1.039e-05
0.00127307
2.56193e-05
7.9097e-06
0.00124982
2.35317e-05
5.84904e-06
0.00122873
2.16868e-05
4.15321e-06
0.00120954
2.00299e-05
2.76438e-06
0.00119205
1.84967e-05
1.60454e-06
0.0011761
1.70623e-05
6.00406e-07
0.00116163
1.58201e-05
-5.09494e-07
0.00114841
1.47805e-05
-1.69179e-06
0.00113628
1.39745e-05
-3.02867e-06
0.00112516
1.33996e-05
-4.48405e-06
0.00111501
1.29734e-05
-5.97043e-06
0.00110583
1.25917e-05
-7.35649e-06
0.00109768
1.21573e-05
-8.5127e-06
1.16061e-05
-9.34284e-06
0.0010906
0.00255657
3.15237e-05
2.22133e-05
0.0026294
7.44657e-05
6.21509e-05
0.00268534
8.99771e-05
9.00889e-05
0.00272962
9.07806e-05
0.000103629
0.00276748
8.9546e-05
0.000110776
0.00279817
8.87569e-05
0.000115277
0.00282028
8.69365e-05
0.000117376
0.00283403
8.33897e-05
0.000116811
0.00284078
7.87205e-05
0.000114015
0.00284186
7.37809e-05
0.00010978
0.0028382
6.90316e-05
0.000104769
0.00283053
6.45717e-05
9.93682e-05
0.00281953
6.03657e-05
9.37661e-05
0.00280585
5.63861e-05
8.80758e-05
0.00279013
5.26427e-05
8.24051e-05
0.0027729
4.91622e-05
7.68578e-05
0.00275459
4.59533e-05
7.15e-05
0.00273553
4.30006e-05
6.63682e-05
0.002716
4.02901e-05
6.14966e-05
0.00269624
3.78111e-05
5.69025e-05
0.00267649
3.55398e-05
5.25678e-05
0.00265695
3.3444e-05
4.84648e-05
0.00263777
3.14957e-05
4.45791e-05
0.00261904
2.96662e-05
4.09135e-05
0.00260076
2.79506e-05
3.7501e-05
0.00258296
2.63989e-05
3.43948e-05
0.00256566
2.50329e-05
3.15786e-05
0.00254895
2.38452e-05
2.89675e-05
0.00253294
2.2813e-05
2.64034e-05
0.00251779
2.18787e-05
2.37049e-05
0.00250366
2.0976e-05
2.07284e-05
0.00249072
2.00559e-05
1.74053e-05
1.91064e-05
1.37695e-05
0.00247911
0.00253506
1.21955e-05
2.20135e-05
0.00260695
3.32021e-05
6.22069e-05
0.00268102
4.44586e-05
9.03833e-05
0.00274926
4.62856e-05
0.00010373
0.00281357
4.59885e-05
0.000110627
0.00287466
4.61174e-05
0.000115204
0.00293085
4.61438e-05
0.000117989
0.00298069
4.52818e-05
0.00011854
0.00302397
4.35932e-05
0.000117028
0.00306119
4.15548e-05
0.000114118
0.00309296
3.95186e-05
0.000110456
0.0031198
3.75873e-05
0.00010644
0.00314213
3.57391e-05
0.000102252
0.00316036
3.3944e-05
9.79697e-05
0.00317492
3.22048e-05
9.36406e-05
0.00318626
3.05443e-05
8.93198e-05
0.0031948
2.89749e-05
8.50714e-05
0.00320092
2.74966e-05
8.09579e-05
0.00320492
2.61135e-05
7.70281e-05
0.00320706
2.48274e-05
7.33027e-05
0.00320758
2.363e-05
6.97632e-05
0.00320672
2.25047e-05
6.63583e-05
0.00320471
2.1428e-05
6.30458e-05
0.00320176
2.03849e-05
5.98241e-05
0.00319805
1.93861e-05
5.67315e-05
0.0031937
1.84687e-05
5.38272e-05
0.00318883
1.76568e-05
5.11407e-05
0.00318354
1.695e-05
4.86429e-05
0.00317794
1.6324e-05
4.62469e-05
0.00317215
1.57314e-05
4.38316e-05
0.00316629
1.51222e-05
4.12795e-05
0.0031605
1.44661e-05
3.85027e-05
1.37678e-05
3.54555e-05
0.00315491
0.00252784
3.58484e-15
2.19023e-05
0.00259156
2.79147e-14
6.20563e-05
0.00266433
4.52011e-14
9.03086e-05
0.00273389
4.63484e-14
0.000103542
0.00279993
6.76957e-14
0.000110206
0.00286371
1.42645e-13
0.000114533
0.00292446
1.86289e-13
0.000117184
0.00298068
6.05518e-14
0.000117684
0.00303157
-1.39034e-13
0.000116133
0.00307722
-5.59939e-15
0.000113176
0.0031181
6.21988e-13
0.000109494
0.00315464
1.09573e-12
0.000105518
0.0031872
7.54704e-13
0.000101446
0.00321605
-3.09869e-13
9.73547e-05
0.00324147
-1.13275e-12
9.32819e-05
0.00326379
-3.37492e-13
8.92647e-05
0.00328336
1.67929e-12
8.53507e-05
0.00330049
3.43415e-12
8.15921e-05
0.00331542
3.22742e-12
7.80364e-05
0.00332837
1.16123e-12
7.4711e-05
0.00333951
-1.17067e-12
7.16063e-05
0.00334903
-1.78821e-12
6.86729e-05
0.00335708
5.28629e-13
6.5852e-05
0.00336385
4.15455e-12
6.31114e-05
0.00336949
6.60101e-12
6.04583e-05
0.00337416
6.75754e-12
5.79325e-05
0.003378
5.60132e-12
5.55718e-05
0.00338113
4.22837e-12
5.33759e-05
0.00338362
4.96874e-12
5.12947e-05
0.00338556
7.5132e-12
4.9238e-05
0.00338698
1.00704e-11
4.71028e-05
0.00338793
9.97713e-12
4.48019e-05
3.67494e-12
4.22831e-05
0.00338847
0.00252784
-1.21955e-05
2.19023e-05
0.00259156
-3.32021e-05
6.20563e-05
0.00266433
-4.44586e-05
9.03086e-05
0.00273389
-4.62856e-05
0.000103542
0.00279993
-4.59885e-05
0.000110206
0.00286371
-4.61174e-05
0.000114533
0.00292446
-4.61438e-05
0.000117184
0.00298068
-4.52818e-05
0.000117684
0.00303157
-4.35932e-05
0.000116133
0.00307722
-4.15548e-05
0.000113176
0.0031181
-3.95186e-05
0.000109494
0.00315464
-3.75873e-05
0.000105518
0.0031872
-3.57391e-05
0.000101446
0.00321605
-3.3944e-05
9.73547e-05
0.00324147
-3.22048e-05
9.32819e-05
0.00326379
-3.05443e-05
8.92647e-05
0.00328336
-2.89749e-05
8.53507e-05
0.00330049
-2.74966e-05
8.15921e-05
0.00331542
-2.61135e-05
7.80364e-05
0.00332837
-2.48274e-05
7.4711e-05
0.00333951
-2.363e-05
7.16063e-05
0.00334903
-2.25047e-05
6.86729e-05
0.00335708
-2.1428e-05
6.5852e-05
0.00336385
-2.03849e-05
6.31114e-05
0.00336949
-1.93861e-05
6.04583e-05
0.00337416
-1.84687e-05
5.79325e-05
0.003378
-1.76568e-05
5.55718e-05
0.00338113
-1.695e-05
5.33759e-05
0.00338362
-1.6324e-05
5.12947e-05
0.00338556
-1.57314e-05
4.9238e-05
0.00338698
-1.51222e-05
4.71028e-05
0.00338793
-1.4466e-05
4.48019e-05
-1.37678e-05
4.22831e-05
0.00338847
0.00253506
-3.15237e-05
2.20135e-05
0.00260695
-7.44657e-05
6.22069e-05
0.00268102
-8.99771e-05
9.03833e-05
0.00274926
-9.07806e-05
0.00010373
0.00281357
-8.9546e-05
0.000110627
0.00287466
-8.87569e-05
0.000115204
0.00293085
-8.69365e-05
0.000117989
0.00298069
-8.33897e-05
0.00011854
0.00302397
-7.87205e-05
0.000117028
0.00306119
-7.37809e-05
0.000114118
0.00309296
-6.90316e-05
0.000110456
0.0031198
-6.45717e-05
0.00010644
0.00314213
-6.03657e-05
0.000102252
0.00316036
-5.63861e-05
9.79697e-05
0.00317492
-5.26427e-05
9.36406e-05
0.00318626
-4.91622e-05
8.93198e-05
0.0031948
-4.59533e-05
8.50714e-05
0.00320092
-4.30006e-05
8.09579e-05
0.00320492
-4.02901e-05
7.70281e-05
0.00320706
-3.78111e-05
7.33027e-05
0.00320758
-3.55398e-05
6.97632e-05
0.00320672
-3.3444e-05
6.63583e-05
0.00320471
-3.14957e-05
6.30458e-05
0.00320176
-2.96662e-05
5.98241e-05
0.00319805
-2.79506e-05
5.67315e-05
0.0031937
-2.63989e-05
5.38272e-05
0.00318883
-2.50329e-05
5.11407e-05
0.00318354
-2.38452e-05
4.86429e-05
0.00317794
-2.2813e-05
4.62469e-05
0.00317215
-2.18787e-05
4.38316e-05
0.00316629
-2.09759e-05
4.12795e-05
0.0031605
-2.00559e-05
3.85027e-05
-1.91063e-05
3.54555e-05
0.00315491
0.00255657
-7.20525e-05
2.22133e-05
0.0026294
-0.000116087
6.21509e-05
0.00268534
-0.000116191
9.00889e-05
0.00272962
-0.000109604
0.000103629
0.00276748
-0.00010463
0.000110776
0.00279817
-9.92238e-05
0.000115277
0.00282028
-9.22816e-05
0.000117376
0.00283403
-8.43323e-05
0.000116811
0.00284078
-7.63712e-05
0.000114015
0.00284186
-6.89407e-05
0.00010978
0.0028382
-6.21635e-05
0.000104769
0.00283053
-5.60205e-05
9.93682e-05
0.00281953
-5.04792e-05
9.37661e-05
0.00280585
-4.55118e-05
8.80758e-05
0.00279013
-4.10906e-05
8.24051e-05
0.0027729
-3.71855e-05
7.68578e-05
0.00275459
-3.3746e-05
7.15e-05
0.00273553
-3.07006e-05
6.63682e-05
0.002716
-2.79988e-05
6.14966e-05
0.00269624
-2.56193e-05
5.69025e-05
0.00267649
-2.35317e-05
5.25678e-05
0.00265695
-2.16868e-05
4.84648e-05
0.00263777
-2.00299e-05
4.45791e-05
0.00261904
-1.84967e-05
4.09135e-05
0.00260076
-1.70623e-05
3.75011e-05
0.00258296
-1.58201e-05
3.43948e-05
0.00256566
-1.47805e-05
3.15785e-05
0.00254895
-1.39745e-05
2.89675e-05
0.00253294
-1.33996e-05
2.64034e-05
0.00251779
-1.29734e-05
2.37049e-05
0.00250366
-1.25916e-05
2.07284e-05
0.00249072
-1.21573e-05
1.74053e-05
-1.16061e-05
1.37695e-05
0.00247911
0.00244399
2.2241e-05
0.00235721
5.97321e-05
0.00226777
8.34523e-05
0.00218046
9.27762e-05
0.00209489
9.56199e-05
0.00201083
9.49142e-05
0.0019289
9.07843e-05
0.00185016
8.36508e-05
0.00177557
7.4663e-05
0.00170573
6.50356e-05
0.00164098
5.56141e-05
0.00158152
4.68563e-05
0.00152738
3.89834e-05
0.00147842
3.2091e-05
0.00143436
2.61768e-05
0.0013948
2.11565e-05
0.0013593
1.69197e-05
0.00132744
1.33631e-05
0.00129883
1.039e-05
0.00127307
7.9097e-06
0.00124982
5.84904e-06
0.00122873
4.15321e-06
0.00120954
2.76438e-06
0.00119205
1.60454e-06
0.0011761
6.00406e-07
0.00116163
-5.09496e-07
0.00114841
-1.69179e-06
0.00113628
-3.02866e-06
0.00112516
-4.48404e-06
0.00111501
-5.97041e-06
0.00110583
-7.35646e-06
0.00109768
-8.51267e-06
-9.3428e-06
0.0010906
0.00243547
7.20554e-05
1.47168e-05
0.00233727
0.000116542
4.13896e-05
0.00224254
0.000116545
6.16339e-05
0.0021538
0.000109284
7.22373e-05
0.00206933
0.000103586
7.65021e-05
0.00198925
9.78358e-05
7.71609e-05
0.00191401
9.08401e-05
7.51825e-05
0.00184387
8.29024e-05
7.08853e-05
0.00177882
7.49017e-05
6.4818e-05
0.00171868
6.73994e-05
5.77733e-05
0.00166328
6.05524e-05
5.04619e-05
0.00161246
5.43459e-05
4.3333e-05
0.00156607
4.87344e-05
3.66365e-05
0.00152394
4.36822e-05
3.05362e-05
0.00148583
3.9166e-05
2.51189e-05
0.00145144
3.51675e-05
2.03795e-05
0.00142045
3.16581e-05
1.62577e-05
0.00139253
2.85808e-05
1.26979e-05
0.00136739
2.58733e-05
9.65779e-06
0.00134471
2.34945e-05
7.09411e-06
0.00132419
2.14057e-05
4.9621e-06
0.00130556
1.95737e-05
3.20832e-06
0.00128859
1.79671e-05
1.76707e-06
0.00127309
1.6526e-05
5.85882e-07
0.001259
1.52547e-05
-5.68964e-07
0.00124612
1.41053e-05
-1.73346e-06
0.00123432
1.30995e-05
-2.99408e-06
0.00122345
1.22566e-05
-4.41265e-06
0.00121337
1.15753e-05
-5.97791e-06
0.00120399
1.10194e-05
-7.61667e-06
0.00119532
1.05331e-05
-9.21174e-06
0.00118737
1.00547e-05
-1.06242e-05
9.52718e-06
-1.17243e-05
0.00118023
0.00254817
3.13303e-05
1.47713e-05
0.00260971
7.42212e-05
4.29307e-05
0.0026607
8.96594e-05
6.59803e-05
0.00270353
9.00664e-05
8.00216e-05
0.0027415
8.82747e-05
8.81128e-05
0.00277453
8.70446e-05
9.30381e-05
0.00280182
8.49992e-05
9.59331e-05
0.00282334
8.13094e-05
9.68816e-05
0.00283979
7.64611e-05
9.60052e-05
0.00285194
7.13053e-05
9.37277e-05
0.00286035
6.63605e-05
9.0552e-05
0.00286544
6.17637e-05
8.68583e-05
0.0028676
5.7479e-05
8.28591e-05
0.00286724
5.34597e-05
7.86599e-05
0.00286476
4.97011e-05
7.43493e-05
0.00286053
4.62291e-05
7.00246e-05
0.00285486
4.3066e-05
6.57596e-05
0.002848
4.0201e-05
6.16087e-05
0.00284015
3.76028e-05
5.76149e-05
0.00283153
3.52402e-05
5.37829e-05
0.00282232
3.30763e-05
5.01035e-05
0.0028127
3.10874e-05
4.65759e-05
0.00280278
2.92687e-05
4.31914e-05
0.00279266
2.75962e-05
3.9962e-05
0.00278242
2.60682e-05
3.69363e-05
0.0027721
2.46739e-05
3.4139e-05
0.00276181
2.33965e-05
3.15724e-05
0.00275162
2.22316e-05
2.91841e-05
0.00274159
2.11658e-05
2.68467e-05
0.00273176
2.01739e-05
2.43781e-05
0.00272219
1.92257e-05
2.16036e-05
0.00271294
1.82967e-05
1.84151e-05
1.73683e-05
1.47896e-05
0.00270408
0.00252652
1.20849e-05
1.4737e-05
0.00258676
3.29881e-05