/*--------------------------------*- C++ -*----------------------------------*\
| =========                 |                                                 |
| \\      /  F ield         | OpenFOAM: The Open Source CFD Toolbox           |
|  \\    /   O peration     | Version:  2412                                  |
|   \\  /    A nd           | Website:  www.openfoam.com                      |
|    \\/     M anipulation  |                                                 |
\*---------------------------------------------------------------------------*/
FoamFile
{
    version     2.0;
    format      ascii;
    arch        "LSB;label=32;scalar=64";
    class       surfaceScalarField;
    location    "2.006708";
    object      phi_0;
}
// * * * * * * * * * * * * * * * * * * * * * * * * * * * * * * * * * * * * * //

dimensions      [0 3 -1 0 0 0 0];

oriented        oriented;

internalField   nonuniform List<scalar> 
45040
(
0.0023522
7.23113e-05
7.54876e-05
0.00212071
0.000111388
0.000120106
0.00188869
0.000109479
0.000122543
0.00167
0.000101254
0.000117426
0.00146945
9.1436e-05
0.00010912
0.00129364
7.89931e-05
9.68146e-05
0.00114666
6.496e-05
8.20168e-05
0.00102791
5.15231e-05
6.72313e-05
0.000933605
4.01945e-05
5.41106e-05
0.000859009
3.14e-05
4.31956e-05
0.000799598
2.49596e-05
3.4452e-05
0.000751519
2.04635e-05
2.76151e-05
0.000711762
1.74321e-05
2.23246e-05
0.000678141
1.54095e-05
1.8212e-05
0.000649151
1.40302e-05
1.49601e-05
0.000623787
1.30365e-05
1.23275e-05
0.000601385
1.22539e-05
1.01477e-05
0.000581498
1.1568e-05
8.3189e-06
0.000563788
1.09231e-05
6.7868e-06
0.000547963
1.03105e-05
5.51475e-06
0.000533768
9.73756e-06
4.45781e-06
0.000521001
9.20609e-06
3.56026e-06
0.000509522
8.71294e-06
2.76653e-06
0.000499228
8.25558e-06
2.03818e-06
0.000490029
7.8391e-06
1.35959e-06
0.000481811
7.47855e-06
7.39613e-07
0.000474468
7.18209e-06
1.60991e-07
0.000467766
6.89488e-06
-1.92587e-07
0.000461613
6.61317e-06
-4.60134e-07
0.000455947
6.3055e-06
-6.39644e-07
0.000450749
5.93435e-06
-7.36928e-07
0.000446036
5.48203e-06
-7.68325e-07
4.9515e-06
-7.49344e-07
0.000441834
0.00246447
3.20826e-05
7.57557e-05
0.00237893
7.12921e-05
0.000125638
0.0022741
8.28946e-05
0.00013141
0.00216431
8.14038e-05
0.000129643
0.00205104
7.76194e-05
0.000127086
0.00193622
7.20998e-05
0.000121716
0.00182368
6.40347e-05
0.000113468
0.00171711
5.43444e-05
0.000103745
0.00161874
4.4707e-05
9.38589e-05
0.0015295
3.62356e-05
8.44013e-05
0.0014496
2.93091e-05
7.55531e-05
0.00137878
2.39105e-05
6.73712e-05
0.00131646
1.98687e-05
5.98798e-05
0.00126184
1.6942e-05
5.30905e-05
0.001214
1.48682e-05
4.7001e-05
0.00117205
1.34159e-05
4.15765e-05
0.00113516
1.24012e-05
3.67391e-05
0.00110265
1.16736e-05
3.24084e-05
0.0010739
1.11101e-05
2.85588e-05
0.00104838
1.06319e-05
2.51942e-05
0.00102564
1.02136e-05
2.22733e-05
0.00100528
9.85762e-06
1.97051e-05
0.000987032
9.56671e-06
1.73929e-05
0.000970686
9.33332e-06
1.5268e-05
0.000956076
9.13454e-06
1.33152e-05
0.000943042
8.93095e-06
1.15815e-05
0.000931417
8.68311e-06
1.01233e-05
0.000921015
8.37021e-06
8.92701e-06
0.000911698
8.01453e-06
7.91532e-06
0.000903384
7.64632e-06
6.97333e-06
0.000896028
7.2802e-06
6.0108e-06
0.000889603
6.91039e-06
4.99599e-06
6.51929e-06
3.94799e-06
0.000884088
0.00244436
1.24834e-05
7.52434e-05
0.0023588
3.18714e-05
0.000124975
0.0022714
4.07832e-05
0.000129517
0.00218545
4.10241e-05
0.000126324
0.00210003
3.95164e-05
0.000123521
0.00201536
3.7618e-05
0.000119149
0.00193244
3.4581e-05
0.000112383
0.00185237
3.03912e-05
0.000104018
0.00177605
2.57944e-05
9.52332e-05
0.00170409
2.14946e-05
8.66979e-05
0.00163696
1.78113e-05
7.86283e-05
0.001575
1.47942e-05
7.10791e-05
0.00151839
1.2399e-05
6.40762e-05
0.00146714
1.05505e-05
5.76434e-05
0.00142106
9.15484e-06
5.17994e-05
0.00137981
8.11992e-06
4.65422e-05
0.00134301
7.36686e-06
4.18339e-05
0.00131025
6.82004e-06
3.76134e-05
0.00128112
6.40871e-06
3.3835e-05
0.00125519
6.07817e-06
3.04819e-05
0.00123206
5.80938e-06
2.7528e-05
0.0012114
5.60499e-06
2.49145e-05
0.00119293
5.46755e-06
2.25702e-05
0.00117644
5.38704e-06
2.04363e-05
0.00116175
5.33403e-06
1.84925e-05
0.00114866
5.26389e-06
1.67541e-05
0.00113696
5.13511e-06
1.52495e-05
0.00112642
4.93256e-06
1.39783e-05
0.00111687
4.67907e-06
1.28876e-05
0.00110822
4.41354e-06
1.18845e-05
0.00110045
4.16482e-06
1.08817e-05
0.00109359
3.94375e-06
9.82616e-06
3.74657e-06
8.7031e-06
0.00108766
0.00243728
5.69397e-15
7.52018e-05
0.00234391
2.21476e-14
0.000125241
0.00225513
3.55678e-14
0.000129561
0.00217048
4.08354e-14
0.000125675
0.00208773
5.36344e-14
0.000122267
0.00200763
7.81074e-14
0.000117715
0.00193121
9.44577e-14
0.000111005
0.0018589
1.18344e-13
0.000102706
0.00179076
1.62836e-13
9.39349e-05
0.00172683
2.22235e-13
8.54257e-05
0.00166721
2.76725e-13
7.74267e-05
0.00161203
3.24078e-13
6.9978e-05
0.00156135
4.15212e-13
6.30793e-05
0.00151515
5.73361e-13
5.67411e-05
0.00147333
7.22207e-13
5.09816e-05
0.00143564
7.57085e-13
4.5809e-05
0.0014018
8.12088e-13
4.12014e-05
0.00137152
1.08487e-12
3.71026e-05
0.00134448
1.55652e-12
3.34525e-05
0.00132034
1.99178e-12
3.02186e-05
0.00129876
2.27098e-12
2.73862e-05
0.00127946
2.62225e-12
2.49037e-05
0.00126222
3.27662e-12
2.27094e-05
0.00124686
4.25186e-12
2.07496e-05
0.00123321
5.21064e-12
1.89855e-05
0.00122107
5.40985e-12
1.74e-05
0.00121021
4.10443e-12
1.5993e-05
0.00120038
1.72403e-12
1.47625e-05
0.00119138
-1.33088e-12
1.36857e-05
0.00118308
-3.18157e-12
1.27119e-05
0.00117547
-2.44645e-12
1.17756e-05
0.00116859
2.08373e-12
1.08224e-05
1.06894e-11
9.82497e-06
0.00116251
0.00243728
-1.24834e-05
7.52018e-05
0.00234391
-3.18714e-05
0.000125241
0.00225513
-4.07832e-05
0.000129561
0.00217048
-4.10241e-05
0.000125675
0.00208773
-3.95164e-05
0.000122267
0.00200763
-3.7618e-05
0.000117715
0.00193121
-3.4581e-05
0.000111005
0.0018589
-3.03912e-05
0.000102706
0.00179076
-2.57944e-05
9.39349e-05
0.00172683
-2.14946e-05
8.54257e-05
0.00166721
-1.78113e-05
7.74267e-05
0.00161203
-1.47942e-05
6.9978e-05
0.00156135
-1.2399e-05
6.30793e-05
0.00151515
-1.05504e-05
5.67411e-05
0.00147333
-9.15484e-06
5.09816e-05
0.00143564
-8.11992e-06
4.5809e-05
0.0014018
-7.36685e-06
4.12014e-05
0.00137152
-6.82004e-06
3.71026e-05
0.00134448
-6.40871e-06
3.34525e-05
0.00132034
-6.07816e-06
3.02186e-05
0.00129876
-5.80938e-06
2.73862e-05
0.00127946
-5.60498e-06
2.49037e-05
0.00126222
-5.46755e-06
2.27094e-05
0.00124686
-5.38703e-06
2.07496e-05
0.00123321
-5.33402e-06
1.89855e-05
0.00122107
-5.26388e-06
1.74e-05
0.00121021
-5.1351e-06
1.5993e-05
0.00120038
-4.93255e-06
1.47625e-05
0.00119138
-4.67907e-06
1.36857e-05
0.00118308
-4.41354e-06
1.27119e-05
0.00117547
-4.16482e-06
1.17756e-05
0.00116859
-3.94374e-06
1.08224e-05
-3.74655e-06
9.82497e-06
0.00116251
0.00244436
-3.20826e-05
7.52434e-05
0.0023588
-7.12921e-05
0.000124975
0.0022714
-8.28946e-05
0.000129517
0.00218545
-8.14038e-05
0.000126324
0.00210003
-7.76194e-05
0.000123521
0.00201536
-7.20998e-05
0.000119149
0.00193244
-6.40347e-05
0.000112383
0.00185237
-5.43444e-05
0.000104018
0.00177605
-4.4707e-05
9.52332e-05
0.00170409
-3.62356e-05
8.66979e-05
0.00163696
-2.93091e-05
7.86283e-05
0.001575
-2.39105e-05
7.10791e-05
0.00151839
-1.98687e-05
6.40762e-05
0.00146714
-1.6942e-05
5.76434e-05
0.00142106
-1.48682e-05
5.17994e-05
0.00137981
-1.34159e-05
4.65422e-05
0.00134301
-1.24012e-05
4.18339e-05
0.00131025
-1.16736e-05
3.76134e-05
0.00128112
-1.11101e-05
3.3835e-05
0.00125519
-1.06319e-05
3.04819e-05
0.00123206
-1.02136e-05
2.7528e-05
0.0012114
-9.85762e-06
2.49145e-05
0.00119293
-9.5667e-06
2.25702e-05
0.00117644
-9.33331e-06
2.04363e-05
0.00116175
-9.13453e-06
1.84925e-05
0.00114866
-8.93094e-06
1.67541e-05
0.00113696
-8.6831e-06
1.52495e-05
0.00112642
-8.37021e-06
1.39783e-05
0.00111687
-8.01452e-06
1.28876e-05
0.00110822
-7.64632e-06
1.18845e-05
0.00110045
-7.2802e-06
1.08817e-05
0.00109359
-6.91038e-06
9.82615e-06
-6.51927e-06
8.7031e-06
0.00108766
0.00246447
-7.23113e-05
7.57557e-05
0.00237893
-0.000111388
0.000125638
0.0022741
-0.000109479
0.00013141
0.00216431
-0.000101254
0.000129643
0.00205104
-9.1436e-05
0.000127086
0.00193622
-7.89931e-05
0.000121716
0.00182368
-6.496e-05
0.000113468
0.00171711
-5.15231e-05
0.000103745
0.00161874
-4.01945e-05
9.38589e-05
0.0015295
-3.14e-05
8.44013e-05
0.0014496
-2.49596e-05
7.55531e-05
0.00137878
-2.04635e-05
6.73712e-05
0.00131646
-1.74321e-05
5.98798e-05
0.00126184
-1.54095e-05
5.30905e-05
0.001214
-1.40302e-05
4.7001e-05
0.00117205
-1.30365e-05
4.15765e-05
0.00113516
-1.22539e-05
3.67391e-05
0.00110265
-1.1568e-05
3.24084e-05
0.0010739
-1.09231e-05
2.85588e-05
0.00104838
-1.03105e-05
2.51942e-05
0.00102564
-9.73756e-06
2.22733e-05
0.00100528
-9.20609e-06
1.97051e-05
0.000987032
-8.71294e-06
1.73929e-05
0.000970686
-8.25557e-06
1.5268e-05
0.000956076
-7.83909e-06
1.33152e-05
0.000943042
-7.47855e-06
1.15815e-05
0.000931418
-7.18209e-06
1.01233e-05
0.000921015
-6.89487e-06
8.92702e-06
0.000911698
-6.61316e-06
7.91532e-06
0.000903384
-6.30549e-06
6.97333e-06
0.000896028
-5.93434e-06
6.0108e-06
0.000889603
-5.48201e-06
4.99599e-06
-4.95148e-06
3.94799e-06
0.000884088
0.0023522
7.54876e-05
0.00212071
0.000120106
0.00188869
0.000122543
0.00167
0.000117426
0.00146945
0.00010912
0.00129364
9.68146e-05
0.00114666
8.20168e-05
0.00102791
6.72313e-05
0.000933605
5.41106e-05
0.000859009
4.31956e-05
0.000799598
3.4452e-05
0.000751519
2.76151e-05
0.000711762
2.23246e-05
0.000678141
1.8212e-05
0.000649151
1.49601e-05
0.000623787
1.23275e-05
0.000601385
1.01477e-05
0.000581498
8.3189e-06
0.000563788
6.7868e-06
0.000547963
5.51475e-06
0.000533768
4.45781e-06
0.000521001
3.56026e-06
0.000509522
2.76653e-06
0.000499228
2.03818e-06
0.000490029
1.35959e-06
0.000481811
7.39616e-07
0.000474468
1.60997e-07
0.000467766
-1.92583e-07
0.000461613
-4.60129e-07
0.000455947
-6.39637e-07
0.000450749
-7.36918e-07
0.000446036
-7.68311e-07
-7.49324e-07
0.000441834
0.00246464
7.25576e-05
3.82876e-05
0.00237893
0.000116782
8.90386e-05
0.00227315
0.000118124
0.000110203
0.00216254
0.000112959
0.000115075
0.00204876
0.000108229
0.00011467
0.00193365
0.000101845
0.000110081
0.0018211
9.34323e-05
0.000101129
0.00171496
8.41337e-05
8.92426e-05
0.0016175
7.51343e-05
7.64356e-05
0.00152962
6.69458e-05
6.41271e-05
0.00145139
5.96607e-05
5.30251e-05
0.00138237
5.32339e-05
4.34037e-05
0.00132179
4.759e-05
3.53058e-05
0.00126872
4.26538e-05
2.86293e-05
0.00122215
3.8354e-05
2.31829e-05
0.00118111
3.46117e-05
1.87479e-05
0.00114481
3.13284e-05
1.51274e-05
0.00111255
2.84123e-05
1.21632e-05
0.00108378
2.58241e-05
9.72899e-06
0.00105801
2.35621e-05
7.72076e-06
0.00103482
2.15947e-05
6.05797e-06
0.00101385
1.98452e-05
4.68198e-06
0.000994851
1.8239e-05
3.52969e-06
0.000977623
1.67462e-05
2.51969e-06
0.000962013
1.53873e-05
1.5825e-06
0.000947846
1.42297e-05
6.76538e-07
0.000935031
1.33784e-05
-4.0192e-07
0.000923494
1.28289e-05
-1.48508e-06
0.000913125
1.24484e-05
-2.539e-06
0.000903876
1.20952e-05
-3.48576e-06
0.000895733
1.16441e-05
-4.23825e-06
0.000888687
1.10196e-05
-4.74146e-06
1.02074e-05
-4.98048e-06
0.00088271
0.00257804
3.20173e-05
3.82558e-05
0.00265207
7.50304e-05
9.33613e-05
0.00269081
9.09706e-05
0.000119819
0.00271176
9.25766e-05
0.000129083
0.00272154
9.1984e-05
0.000133547
0.0027186
9.09948e-05
0.000135509
0.00270309
8.82674e-05
0.000134136
0.00267777
8.35834e-05
0.000129618
0.00264579
7.78651e-05
0.000123108
0.00260943
7.20242e-05
0.000115688
0.00257018
6.64876e-05
0.000107976
0.0025292
6.13357e-05
0.000100248
0.00248748
5.65497e-05
9.26393e-05
0.00244583
5.21322e-05
8.52598e-05
0.00240487
4.80986e-05
7.82146e-05
0.00236505
4.44368e-05
7.15782e-05
0.00232664
4.11062e-05
6.53689e-05
0.00228981
3.80737e-05
5.9578e-05
0.00225464
3.53325e-05
5.42165e-05
0.00222123
3.28747e-05
4.92923e-05
0.00218966
3.06609e-05
4.47727e-05
0.00215998
2.86249e-05
4.06126e-05
0.00213212
2.67138e-05
3.67793e-05
0.00210596
2.49329e-05
3.32387e-05
0.00208134
2.33347e-05
2.99866e-05
0.00205813
2.1975e-05
2.70503e-05
0.00203633
2.08799e-05
2.44187e-05
0.0020161
2.0001e-05
2.19798e-05
0.00199766
1.92187e-05
1.95908e-05
0.00198118
1.84159e-05
1.71272e-05
0.0019668
1.75211e-05
1.45159e-05
0.00195453
1.65184e-05
1.17649e-05
1.54332e-05
8.95444e-06
0.0019443
0.00255712
1.23936e-05
3.77448e-05
0.00263097
3.33179e-05
9.28357e-05
0.00268788
4.46475e-05
0.000118937
0.00273249
4.68126e-05
0.000127477
0.00276976
4.68587e-05
0.000131372
0.0027992
4.70496e-05
0.000133658
0.00281976
4.67086e-05
0.000133387
0.00283182
4.52653e-05
0.000130275
0.00283675
4.29949e-05
0.000125169
0.00283593
4.04426e-05
0.000119097
0.0028304
3.79425e-05
0.000112711
0.00282094
3.55756e-05
0.000106297
0.00280828
3.33268e-05
9.9956e-05
0.00279311
3.11958e-05
9.3748e-05
0.00277607
2.9205e-05
8.77406e-05
0.00275768
2.73606e-05
8.20083e-05
0.00273837
2.56439e-05
7.6605e-05
0.00271846
2.40439e-05
7.1548e-05
0.00269823
2.25714e-05
6.6831e-05
0.00267792
2.12294e-05
6.24386e-05
0.00265777
1.99929e-05
5.83408e-05
0.00263798
1.88295e-05
5.44974e-05
0.00261867
1.77167e-05
5.08832e-05
0.00259988
1.66621e-05
4.74974e-05
0.00258165
1.57062e-05
4.43523e-05
0.00256402
1.48966e-05
4.14594e-05
0.00254709
1.42495e-05
3.88139e-05
0.00253098
1.37211e-05
3.63669e-05
0.00251583
1.32235e-05
3.40266e-05
0.00250177
1.26745e-05
3.16853e-05
0.00248889
1.20308e-05
2.92534e-05
0.00247726
1.12934e-05
2.66797e-05
1.04961e-05
2.39562e-05
0.00246695
0.00255005
4.66974e-15
3.75502e-05
0.00261603
2.17465e-14
9.25763e-05
0.00267162
3.84772e-14
0.000118618
0.00271729
4.94708e-14
0.000126818
0.00275617
6.59319e-14
0.000130247
0.00278873
1.13018e-13
0.000132199
0.00281465
1.13597e-13
0.000131795
0.002834
2.64153e-14
0.000128619
0.00284751
2.81441e-14
0.000123424
0.00285612
3.02691e-13
0.00011726
0.00286065
6.22605e-13
0.000110839
0.00286173
4.22859e-13
0.000104476
0.00285987
-1.06442e-13
9.8265e-05
0.00285556
-2.22925e-13
9.22481e-05
0.00284927
7.78186e-13
8.64765e-05
0.00284142
1.93257e-12
8.10145e-05
0.00283235
1.64581e-12
7.59147e-05
0.0028223
1.71064e-13
7.11935e-05
0.00281149
-6.23893e-13
6.68355e-05
0.00280013
9.55415e-13
6.28129e-05
0.00278842
3.82453e-12
5.90906e-05
0.00277652
5.17472e-12
5.56297e-05
0.00276454
3.10425e-12
5.24049e-05
0.00275255
-3.44888e-13
4.94053e-05
0.00274062
-1.7919e-12
4.66227e-05
0.00272886
2.17593e-12
4.40489e-05
0.00271744
1.0608e-11
4.16695e-05
0.00270647
1.85304e-11
3.94502e-05
0.00269605
2.05977e-11
3.73343e-05
0.00268618
1.32192e-11
3.52509e-05
0.00267686
-2.16397e-12
3.31286e-05
0.00266806
-2.02818e-11
3.09131e-05
-3.37352e-11
2.85759e-05
0.00265981
0.00255005
-1.23936e-05
3.75502e-05
0.00261603
-3.33179e-05
9.25763e-05
0.00267162
-4.46475e-05
0.000118618
0.00271729
-4.68126e-05
0.000126818
0.00275617
-4.68587e-05
0.000130247
0.00278873
-4.70496e-05
0.000132199
0.00281465
-4.67086e-05
0.000131795
0.002834
-4.52653e-05
0.000128619
0.00284751
-4.29949e-05
0.000123424
0.00285612
-4.04426e-05
0.00011726
0.00286065
-3.79425e-05
0.000110839
0.00286173
-3.55756e-05
0.000104476
0.00285987
-3.33268e-05
9.8265e-05
0.00285556
-3.11958e-05
9.22481e-05
0.00284927
-2.9205e-05
8.64765e-05
0.00284142
-2.73606e-05
8.10145e-05
0.00283235
-2.56439e-05
7.59147e-05
0.0028223
-2.40439e-05
7.11935e-05
0.00281149
-2.25714e-05
6.68355e-05
0.00280013
-2.12294e-05
6.28129e-05
0.00278842
-1.99929e-05
5.90906e-05
0.00277652
-1.88295e-05
5.56297e-05
0.00276454
-1.77167e-05
5.24049e-05
0.00275255
-1.66621e-05
4.94053e-05
0.00274062
-1.57062e-05
4.66227e-05
0.00272886
-1.48966e-05
4.40489e-05
0.00271744
-1.42495e-05
4.16695e-05
0.00270647
-1.37211e-05
3.94502e-05
0.00269605
-1.32234e-05
3.73343e-05
0.00268618
-1.26744e-05
3.52509e-05
0.00267686
-1.20308e-05
3.31286e-05
0.00266806
-1.12934e-05
3.09131e-05
-1.04962e-05
2.85759e-05
0.00265981
0.00255712
-3.20173e-05
3.77448e-05
0.00263097
-7.50304e-05
9.28357e-05
0.00268788
-9.09706e-05
0.000118937
0.00273249
-9.25766e-05
0.000127477
0.00276976
-9.1984e-05
0.000131372
0.0027992
-9.09948e-05
0.000133658
0.00281976
-8.82674e-05
0.000133387
0.00283182
-8.35834e-05
0.000130275
0.00283675
-7.78651e-05
0.000125169
0.00283593
-7.20242e-05
0.000119097
0.0028304
-6.64876e-05
0.000112711
0.00282094
-6.13357e-05
0.000106297
0.00280828
-5.65497e-05
9.9956e-05
0.00279311
-5.21322e-05
9.3748e-05
0.00277607
-4.80985e-05
8.77406e-05
0.00275768
-4.44368e-05
8.20083e-05
0.00273837
-4.11062e-05
7.6605e-05
0.00271846
-3.80737e-05
7.1548e-05
0.00269823
-3.53325e-05
6.6831e-05
0.00267792
-3.28747e-05
6.24386e-05
0.00265777
-3.06609e-05
5.83408e-05
0.00263798
-2.86249e-05
5.44974e-05
0.00261867
-2.67138e-05
5.08832e-05
0.00259988
-2.49329e-05
4.74974e-05
0.00258165
-2.33347e-05
4.43523e-05
0.00256402
-2.1975e-05
4.14594e-05
0.00254709
-2.08799e-05
3.88139e-05
0.00253098
-2.0001e-05
3.63669e-05
0.00251583
-1.92187e-05
3.40266e-05
0.00250177
-1.84159e-05
3.16853e-05
0.00248889
-1.75211e-05
2.92534e-05
0.00247726
-1.65184e-05
2.66797e-05
-1.54332e-05
2.39562e-05
0.00246695
0.00257804
-7.25576e-05
3.82558e-05
0.00265207
-0.000116782
9.33613e-05
0.00269081
-0.000118124
0.000119819
0.00271176
-0.000112959
0.000129083
0.00272154
-0.000108229
0.000133547
0.0027186
-0.000101845
0.000135509
0.00270309
-9.34323e-05
0.000134136
0.00267777
-8.41337e-05
0.000129618
0.00264579
-7.51343e-05
0.000123108
0.00260943
-6.69458e-05
0.000115688
0.00257018
-5.96607e-05
0.000107976
0.0025292
-5.32339e-05
0.000100248
0.00248748
-4.759e-05
9.26393e-05
0.00244583
-4.26538e-05
8.52598e-05
0.00240487
-3.8354e-05
7.82146e-05
0.00236505
-3.46117e-05
7.15782e-05
0.00232664
-3.13284e-05
6.53689e-05
0.00228981
-2.84123e-05
5.9578e-05
0.00225464
-2.58241e-05
5.42165e-05
0.00222123
-2.35621e-05
4.92923e-05
0.00218966
-2.15947e-05
4.47727e-05
0.00215998
-1.98452e-05
4.06126e-05
0.00213212
-1.8239e-05
3.67793e-05
0.00210596
-1.67462e-05
3.32387e-05
0.00208134
-1.53873e-05
2.99866e-05
0.00205813
-1.42297e-05
2.70503e-05
0.00203633
-1.33784e-05
2.44187e-05
0.0020161
-1.28289e-05
2.19798e-05
0.00199766
-1.24484e-05
1.95908e-05
0.00198118
-1.20952e-05
1.71272e-05
0.0019668
-1.16441e-05
1.45159e-05
0.00195453
-1.10196e-05
1.17649e-05
-1.02074e-05
8.95443e-06
0.0019443
0.00246464
3.82876e-05
0.00237893
8.90386e-05
0.00227315
0.000110203
0.00216254
0.000115075
0.00204876
0.00011467
0.00193365
0.000110081
0.0018211
0.000101129
0.00171496
8.92426e-05
0.0016175
7.64356e-05
0.00152962
6.41271e-05
0.00145139
5.30251e-05
0.00138237
4.34037e-05
0.00132179
3.53058e-05
0.00126872
2.86293e-05
0.00122215
2.31829e-05
0.00118111
1.87479e-05
0.00114481
1.51274e-05
0.00111255
1.21632e-05
0.00108378
9.72899e-06
0.00105801
7.72076e-06
0.00103482
6.05797e-06
0.00101385
4.68198e-06
0.000994851
3.52969e-06
0.000977623
2.51969e-06
0.000962013
1.5825e-06
0.000947846
6.76539e-07
0.000935031
-4.01915e-07
0.000923494
-1.48507e-06
0.000913125
-2.53899e-06
0.000903876
-3.48575e-06
0.000895733
-4.23823e-06
0.000888687
-4.74144e-06
-4.98046e-06
0.00088271
0.00244399
7.2058e-05
2.22401e-05
0.00235721
0.000116092
5.97311e-05
0.00226776
0.000116191
8.34528e-05
0.00218046
0.000109603
9.27768e-05
0.00209488
0.00010463
9.56185e-05
0.00201083
9.92239e-05
9.49113e-05
0.00192889
9.22817e-05
9.07812e-05
0.00185016
8.43313e-05
8.3646e-05
0.00177557
7.63687e-05
7.46556e-05
0.00170573
6.89386e-05
6.50278e-05
0.00164098
6.21639e-05
5.56058e-05
0.00158152
5.6023e-05
4.68434e-05
0.00152738
5.04805e-05
3.89642e-05
0.00147843
4.55099e-05
3.20673e-05
0.00143438
4.10883e-05
2.61492e-05
0.00139482
3.71866e-05
2.11234e-05
0.00135932
3.3748e-05
1.68793e-05
0.00132747
3.07001e-05
1.33136e-05
0.00129887
2.80002e-05
1.03283e-05
0.00127312
2.56285e-05
7.83535e-06
0.00124987
2.35471e-05
5.76793e-06
0.00122878
2.17016e-05
4.07247e-06
0.00120959
2.0033e-05
2.68342e-06
0.00119212
1.84789e-05
1.51205e-06
0.00117619
1.7041e-05
4.68159e-07
0.00116178
1.58293e-05
-7.38907e-07
0.00114858
1.48239e-05
-2.02978e-06
0.0011365
1.40699e-05
-3.47066e-06
0.00112544
1.3531e-05
-5.00877e-06
0.00111537
1.31101e-05
-6.53409e-06
0.00110634
1.26986e-05
-7.90622e-06
0.0010984
1.22052e-05
-8.99903e-06
1.15761e-05
-9.72759e-06
0.00109157
0.00255658
3.15236e-05
2.22122e-05
0.00262941
7.44675e-05
6.21501e-05
0.00268535
8.99797e-05
9.00907e-05
0.00272963
9.07808e-05
0.000103629
0.00276749
8.9545e-05
0.000110774
0.00279819
8.8758e-05
0.000115277
0.00282029
8.69399e-05
0.000117379
0.00283403
8.3391e-05
0.00011681
0.00284079
7.87173e-05
0.000114006
0.00284187
7.37765e-05
0.000109769
0.00283821
6.90313e-05
0.000104764
0.00283054
6.45767e-05
9.93672e-05
0.00281953
6.03716e-05
9.37589e-05
0.00280586
5.6387e-05
8.80554e-05
0.00279015
5.26386e-05
8.23757e-05
0.00277293
4.91571e-05
7.68265e-05
0.00275463
4.59498e-05
7.14682e-05
0.00273557
4.30004e-05
6.63355e-05
0.00271603
4.0296e-05
6.14609e-05
0.00269627
3.78221e-05
5.68559e-05
0.00267654
3.55498e-05
5.25e-05
0.00265704
3.34468e-05
4.83709e-05
0.0026379
3.14867e-05
4.44618e-05
0.00261919
2.96446e-05
4.07845e-05
0.00260091
2.79326e-05
3.73772e-05
0.0025831
2.64043e-05
3.42871e-05
0.0025658
2.50663e-05
3.14729e-05
0.00254912
2.39046e-05
2.88247e-05
0.0025332
2.2883e-05
2.61621e-05
0.00251819
2.19355e-05
2.33036e-05
0.00250429
2.09982e-05
2.01219e-05
0.00249165
2.00338e-05
1.65786e-05
1.90386e-05
1.27471e-05
0.00248039
0.00253506
1.2195e-05
2.20125e-05
0.00260696
3.32009e-05
6.22064e-05
0.00268103
4.44611e-05
9.03861e-05
0.00274927
4.62861e-05
0.00010373
0.00281358
4.59874e-05
0.000110623
0.00287467
4.61181e-05
0.000115202
0.00293086
4.61469e-05
0.000117993
0.0029807
4.52838e-05
0.000118543
0.00302397
4.35915e-05
0.000117022
0.00306119
4.15512e-05
0.000114102
0.00309297
3.95173e-05
0.000110441
0.00311982
3.75907e-05
0.000106436
0.00314215
3.57446e-05
0.000102257
0.00316037
3.39467e-05
9.79692e-05
0.00317492
3.22034e-05
9.36219e-05
0.00318626
3.05401e-05
8.92816e-05
0.00319482
2.89693e-05
8.50249e-05
0.00320096
2.74932e-05
8.0919e-05
0.00320497
2.61163e-05
7.70054e-05
0.0032071
2.48364e-05
7.32894e-05
0.00320761
2.36404e-05
6.97378e-05
0.00320675
2.25091e-05
6.62979e-05
0.00320476
2.1419e-05
6.29436e-05
0.00320184
2.03637e-05
5.96939e-05
0.00319816
1.93661e-05
5.66002e-05
0.00319384
1.84649e-05
5.37177e-05
0.00318899
1.76754e-05
5.10549e-05
0.00318372
1.6987e-05
4.85571e-05
0.00317815
1.63646e-05
4.61167e-05
0.00317241
1.5755e-05
4.36066e-05
0.00316663
1.51122e-05
4.09159e-05
0.00316096
1.44179e-05
3.79702e-05
1.36863e-05
3.47418e-05
0.00315552
0.00252784
3.28756e-15
2.19012e-05
0.00259157
2.60114e-14
6.20558e-05
0.00266433
3.62322e-14
9.03114e-05
0.0027339
3.9598e-14
0.000103542
0.00279993
7.80549e-14
0.000110201
0.00286372
1.52313e-13
0.00011453
0.00292447
1.45375e-13
0.000117187
0.00298069
-2.83874e-14
0.000117689
0.00303157
-1.42446e-13
0.000116128
0.00307722
1.94282e-13
0.00011316
0.0031181
8.62285e-13
0.000109476
0.00315466
1.04244e-12
0.00010551
0.00318722
3.13535e-13
0.00010145
0.00321606
-8.0061e-13
9.73594e-05
0.00324146
-1.07087e-12
9.32708e-05
0.00326379
4.75814e-13
8.92301e-05
0.00328337
2.64529e-12
8.53e-05
0.00330052
3.68916e-12
8.15428e-05
0.00331546
2.41136e-12
7.80044e-05
0.00332842
-1.72252e-13
7.46983e-05
0.00333955
-1.97198e-12
7.15962e-05
0.00334905
-1.26964e-12
6.86393e-05
0.0033571
2.15206e-12
6.57765e-05
0.00336387
5.76922e-12
6.29944e-05
0.00336954
7.1981e-12
6.03196e-05
0.00337426
6.24624e-12
5.77981e-05
0.00337814
4.5515e-12
5.54566e-05
0.00338131
3.66948e-12
5.32727e-05
0.00338383
5.54795e-12
5.11734e-05
0.00338579
8.6957e-12
4.90547e-05
0.00338721
1.07572e-11
4.68128e-05
0.00338817
8.52266e-12
4.43709e-05
-2.11117e-13
4.16933e-05
0.00338874
0.00252784
-1.2195e-05
2.19012e-05
0.00259157
-3.32009e-05
6.20558e-05
0.00266433
-4.44611e-05
9.03114e-05
0.0027339
-4.62861e-05
0.000103542
0.00279993
-4.59874e-05
0.000110201
0.00286372
-4.61181e-05
0.00011453
0.00292447
-4.61469e-05
0.000117187
0.00298069
-4.52838e-05
0.000117689
0.00303157
-4.35915e-05
0.000116128
0.00307722
-4.15512e-05
0.00011316
0.0031181
-3.95173e-05
0.000109476
0.00315466
-3.75907e-05
0.00010551
0.00318722
-3.57446e-05
0.00010145
0.00321606
-3.39467e-05
9.73594e-05
0.00324146
-3.22034e-05
9.32708e-05
0.00326379
-3.05401e-05
8.92301e-05
0.00328337
-2.89693e-05
8.53e-05
0.00330052
-2.74932e-05
8.15428e-05
0.00331546
-2.61163e-05
7.80044e-05
0.00332842
-2.48364e-05
7.46983e-05
0.00333955
-2.36404e-05
7.15962e-05
0.00334905
-2.25091e-05
6.86393e-05
0.0033571
-2.1419e-05
6.57765e-05
0.00336387
-2.03636e-05
6.29944e-05
0.00336954
-1.93661e-05
6.03196e-05
0.00337426
-1.84649e-05
5.77981e-05
0.00337814
-1.76754e-05
5.54566e-05
0.00338131
-1.6987e-05
5.32727e-05
0.00338383
-1.63645e-05
5.11734e-05
0.00338579
-1.5755e-05
4.90547e-05
0.00338721
-1.51122e-05
4.68128e-05
0.00338817
-1.44179e-05
4.43709e-05
-1.36863e-05
4.16933e-05
0.00338874
0.00253506
-3.15236e-05
2.20125e-05
0.00260696
-7.44675e-05
6.22064e-05
0.00268103
-8.99797e-05
9.03861e-05
0.00274927
-9.07808e-05
0.00010373
0.00281358
-8.9545e-05
0.000110623
0.00287467
-8.8758e-05
0.000115202
0.00293086
-8.69399e-05
0.000117993
0.0029807
-8.3391e-05
0.000118543
0.00302397
-7.87173e-05
0.000117022
0.00306119
-7.37765e-05
0.000114102
0.00309297
-6.90313e-05
0.000110441
0.00311982
-6.45767e-05
0.000106436
0.00314215
-6.03716e-05
0.000102257
0.00316037
-5.6387e-05
9.79692e-05
0.00317492
-5.26386e-05
9.36219e-05
0.00318626
-4.91571e-05
8.92815e-05
0.00319482
-4.59498e-05
8.50249e-05
0.00320096
-4.30004e-05
8.0919e-05
0.00320497
-4.0296e-05
7.70054e-05
0.0032071
-3.78221e-05
7.32894e-05
0.00320761
-3.55498e-05
6.97378e-05
0.00320675
-3.34468e-05
6.62979e-05
0.00320476
-3.14867e-05
6.29436e-05
0.00320184
-2.96446e-05
5.96939e-05
0.00319816
-2.79326e-05
5.66002e-05
0.00319384
-2.64043e-05
5.37177e-05
0.00318899
-2.50663e-05
5.10549e-05
0.00318372
-2.39046e-05
4.85571e-05
0.00317815
-2.2883e-05
4.61167e-05
0.00317241
-2.19355e-05
4.36066e-05
0.00316663
-2.09981e-05
4.09159e-05
0.00316096
-2.00338e-05
3.79702e-05
-1.90386e-05
3.47418e-05
0.00315552
0.00255658
-7.2058e-05
2.22122e-05
0.00262941
-0.000116092
6.21501e-05
0.00268535
-0.000116191
9.00907e-05
0.00272963
-0.000109603
0.000103629
0.00276749
-0.00010463
0.000110774
0.00279819
-9.92239e-05
0.000115277
0.00282029
-9.22817e-05
0.000117379
0.00283403
-8.43313e-05
0.00011681
0.00284079
-7.63687e-05
0.000114006
0.00284187
-6.89386e-05
0.000109769
0.00283821
-6.21639e-05
0.000104764
0.00283054
-5.6023e-05
9.93672e-05
0.00281953
-5.04805e-05
9.37589e-05
0.00280586
-4.55099e-05
8.80554e-05
0.00279015
-4.10883e-05
8.23757e-05
0.00277293
-3.71866e-05
7.68265e-05
0.00275463
-3.3748e-05
7.14682e-05
0.00273557
-3.07001e-05
6.63355e-05
0.00271603
-2.80002e-05
6.14609e-05
0.00269627
-2.56285e-05
5.68559e-05
0.00267654
-2.35471e-05
5.25e-05
0.00265704
-2.17016e-05
4.83709e-05
0.0026379
-2.0033e-05
4.44618e-05
0.00261919
-1.84789e-05
4.07845e-05
0.00260091
-1.7041e-05
3.73772e-05
0.0025831
-1.58293e-05
3.42871e-05
0.0025658
-1.48239e-05
3.14729e-05
0.00254912
-1.40699e-05
2.88247e-05
0.0025332
-1.3531e-05
2.61621e-05
0.00251819
-1.31101e-05
2.33036e-05
0.00250429
-1.26986e-05
2.01219e-05
0.00249165
-1.22052e-05
1.65786e-05
-1.15761e-05
1.27471e-05
0.00248039
0.00244399
2.22401e-05
0.00235721
5.97311e-05
0.00226776
8.34528e-05
0.00218046
9.27768e-05
0.00209488
9.56185e-05
0.00201083
9.49113e-05
0.00192889
9.07812e-05
0.00185016
8.3646e-05
0.00177557
7.46556e-05
0.00170573
6.50278e-05
0.00164098
5.56058e-05
0.00158152
4.68435e-05
0.00152738
3.89642e-05
0.00147843
3.20673e-05
0.00143438
2.61492e-05
0.00139482
2.11234e-05
0.00135932
1.68793e-05
0.00132747
1.33136e-05
0.00129887
1.03283e-05
0.00127312
7.83535e-06
0.00124987
5.76793e-06
0.00122878
4.07247e-06
0.00120959
2.68342e-06
0.00119212
1.51205e-06
0.00117619
4.68159e-07
0.00116178
-7.38908e-07
0.00114858
-2.02978e-06
0.0011365
-3.47065e-06
0.00112544
-5.00876e-06
0.00111537
-6.53407e-06
0.00110634
-7.9062e-06
0.0010984
-8.999e-06
-9.72756e-06
0.00109157
0.00243546
7.20612e-05
1.47165e-05
0.00233726
0.000116547
4.13881e-05
0.00224253
0.000116544
6.16337e-05
0.00215379
0.000109283
7.22385e-05
0.00206932
0.000103585
7.65011e-05
0.00198924
9.78355e-05
7.71581e-05
0.001914
9.08394e-05
7.51803e-05
0.00184386
8.29005e-05
7.08811e-05
0.00177881
7.48985e-05
6.48106e-05
0.00171868
6.73967e-05
5.77665e-05
0.00166327
6.05525e-05
5.04557e-05
0.00161245
5.43484e-05
4.33208e-05
0.00156606
4.87356e-05
3.6616e-05
0.00152394
4.3679e-05
3.0513e-05
0.00148583
3.91606e-05
2.50963e-05
0.00145143
3.51658e-05
2.0352e-05
0.00142043
3.16615e-05
1.6219e-05
0.00139251
2.85847e-05
1.26468e-05
0.00136737
2.58754e-05
9.59633e-06
0.00134468
2.34956e-05
7.0269e-06
0.00132415
2.14064e-05
4.89516e-06
0.0013055
1.95767e-05
3.14286e-06
0.00128852
1.79681e-05
1.69734e-06
0.00127301
1.65192e-05
5.04771e-07
0.00125895
1.52486e-05
-7.17296e-07
0.00124608
1.40984e-05
-1.96998e-06
0.00123429
1.31039e-05
-3.34422e-06
0.00122342
1.2281e-05
-4.88143e-06
0.00121334
1.1616e-05
-6.54737e-06
0.00120399
1.10623e-05
-8.24769e-06
0.00119538
1.05586e-05
-9.85136e-06
0.00118755
1.00422e-05
-1.12141e-05
9.46161e-06
-1.22121e-05
0.00118057
0.00254817
3.13304e-05
1.47705e-05
0.00260972
7.42231e-05
4.29298e-05
0.00266071
8.96612e-05
6.59807e-05
0.00270354
9.00654e-05
8.0021e-05
0.00274151
8.82733e-05
8.81103e-05
0.00277454
8.70459e-05
9.3037e-05
0.00280182
8.50025e-05
9.59346e-05
0.00282334
8.13097e-05
9.68804e-05
0.00283979
7.6456e-05
9.59966e-05
0.00285194
7.12996e-05
9.3715e-05
0.00286036
6.63606e-05
9.05437e-05
0.00286544
6.17705e-05
8.6857e-05
0.0028676
5.74858e-05
8.2855e-05
0.00286723
5.34589e-05
7.86423e-05
0.00286476
4.96922e-05
7.43199e-05
0.00286054
4.62206e-05
6.99908e-05
0.00285487
4.30649e-05
6.57267e-05
0.00284801
4.02073e-05
6.158e-05
0.00284015
3.76124e-05
5.75849e-05
0.00283151
3.52466e-05
5.37391e-05
0.0028223
3.30744e-05
5.00395e-05
0.00281268
3.10805e-05
4.64893e-05
0.00280277
2.92601e-05
4.30834e-05
0.00279264
2.75884e-05
3.98436e-05
0.00278238
2.60644e-05
3.68244e-05
0.00277205
2.46729e-05
3.40395e-05
0.00276175
2.33976e-05
3.1478e-05
0.00275156
2.22332e-05
2.90629e-05
0.00274154
2.11619e-05
2.66409e-05
0.00273173
2.01551e-05
2.40183e-05
0.0027222
1.91831e-05
2.10277e-05
0.00271301
1.82238e-05
1.75889e-05
1.72604e-05
1.37209e-05
0.00270423
0.00252652
1.20845e-05
1.47361e-05