/*--------------------------------*- C++ -*----------------------------------*\
| =========                 |                                                 |
| \\      /  F ield         | OpenFOAM: The Open Source CFD Toolbox           |
|  \\    /   O peration     | Version:  2412                                  |
|   \\  /    A nd           | Website:  www.openfoam.com                      |
|    \\/     M anipulation  |                                                 |
\*---------------------------------------------------------------------------*/
FoamFile
{
    version     2.0;
    format      ascii;
    arch        "LSB;label=32;scalar=64";
    class       volVectorField;
    location    "2.006708";
    object      U;
}
// * * * * * * * * * * * * * * * * * * * * * * * * * * * * * * * * * * * * * //

dimensions      [0 1 -1 0 0 0 0];

internalField   nonuniform List<vector> 
16000
(
(0.929058 0.0154649 0.0159971)
(0.87705 0.0272373 0.0286946)
(0.808691 0.0275072 0.0297409)
(0.720129 0.0240178 0.0267448)
(0.629214 0.0200739 0.022945)
(0.549476 0.0160003 0.0187518)
(0.484311 0.0119348 0.0144182)
(0.432076 0.00837588 0.0105068)
(0.390325 0.00570392 0.00742168)
(0.357077 0.00394716 0.00521241)
(0.330628 0.00291698 0.00371882)
(0.309401 0.00238454 0.00273847)
(0.292042 0.00215454 0.00209611)
(0.277518 0.00207961 0.00165794)
(0.265099 0.00206252 0.00133334)
(0.254299 0.00204992 0.00107011)
(0.244794 0.00201764 0.000843596)
(0.236368 0.0019585 0.000645605)
(0.228871 0.00187679 0.000476239)
(0.222181 0.00178266 0.000336413)
(0.216193 0.00168514 0.00022245)
(0.210814 0.0015891 0.000126836)
(0.205973 0.0014969 4.26668e-05)
(0.201619 0.00141044 -3.30567e-05)
(0.197715 0.00133264 -9.8389e-05)
(0.194225 0.00126782 -0.000146326)
(0.191106 0.00121693 -0.000173807)
(0.188298 0.00117015 -0.000183352)
(0.185737 0.0011231 -0.000165808)
(0.183378 0.00107056 -0.00012413)
(0.181204 0.00100354 -7.14883e-05)
(0.17921 0.000917742 -1.79544e-05)
(0.177401 0.000814616 3.02685e-05)
(0.964165 0.0221286 0.0161099)
(0.952733 0.042827 0.0311013)
(0.932928 0.0476452 0.0343963)
(0.895497 0.046802 0.0331207)
(0.847502 0.0444038 0.0308034)
(0.797837 0.0406232 0.0279935)
(0.750724 0.035467 0.0246503)
(0.706943 0.029657 0.0210179)
(0.666318 0.024072 0.0174941)
(0.628935 0.0192585 0.0143566)
(0.595082 0.0154029 0.0117018)
(0.564911 0.0124802 0.00951013)
(0.538316 0.0103631 0.00772032)
(0.515 0.00887865 0.00626869)
(0.494591 0.00785098 0.00509902)
(0.47671 0.0071327 0.0041592)
(0.461009 0.00661179 0.00339889)
(0.447184 0.00620598 0.00277706)
(0.434973 0.00586109 0.00227063)
(0.424151 0.00555021 0.00186755)
(0.414522 0.00526523 0.00155084)
(0.405918 0.00500442 0.00129461)
(0.398206 0.00476653 0.00107345)
(0.391283 0.00455029 0.000871568)
(0.385075 0.00435519 0.000685863)
(0.379518 0.00418103 0.000524876)
(0.374554 0.00402394 0.000402402)
(0.370117 0.00386819 0.000327542)
(0.366141 0.00370666 0.00029858)
(0.362579 0.00353467 0.000299687)
(0.3594 0.0033419 0.000310108)
(0.356587 0.00312252 0.000315093)
(0.354131 0.002877 0.000308164)
(0.96359 0.00903869 0.0159389)
(0.945939 0.0201502 0.0305306)
(0.926298 0.0240883 0.0333854)
(0.896495 0.0241926 0.0317931)
(0.8604 0.0232457 0.0294522)
(0.823595 0.0218531 0.0269711)
(0.788744 0.0198447 0.02414)
(0.756093 0.0173081 0.0209903)
(0.725146 0.0146295 0.0178029)
(0.695683 0.0121566 0.0148407)
(0.667869 0.0100506 0.012231)
(0.641985 0.0083375 0.00999284)
(0.618227 0.00698904 0.00809853)
(0.59665 0.00595762 0.00651354)
(0.5772 0.00518708 0.00520898)
(0.559761 0.00462412 0.00415417)
(0.544185 0.00422414 0.0033093)
(0.530304 0.00394522 0.00263319)
(0.517954 0.00374404 0.00209664)
(0.506966 0.00358575 0.0016817)
(0.497178 0.00345537 0.00136836)
(0.488436 0.00335184 0.00112854)
(0.480616 0.00327601 0.000932951)
(0.473617 0.00322469 0.000762189)
(0.467362 0.00318761 0.000609471)
(0.461782 0.00314616 0.000478098)
(0.4568 0.00308012 0.000375959)
(0.452331 0.00297904 0.00030778)
(0.448294 0.00285011 0.000271161)
(0.44463 0.0027101 0.000257559)
(0.441309 0.00257324 0.000256041)
(0.438331 0.00244713 0.000257913)
(0.435704 0.00233195 0.000258785)
(0.963591 0.00249678 0.0159635)
(0.94255 0.00598472 0.0306853)
(0.919925 0.00747557 0.0335173)
(0.889285 0.00766505 0.0318051)
(0.854223 0.00745225 0.0293463)
(0.819365 0.00713288 0.0268365)
(0.786933 0.00664977 0.0240491)
(0.75711 0.00597455 0.0209576)
(0.729328 0.00520018 0.0178078)
(0.703152 0.00444243 0.014861)
(0.678509 0.00376711 0.0122532)
(0.65552 0.00319299 0.0100081)
(0.634312 0.00271948 0.00809733)
(0.614928 0.00234005 0.00648458)
(0.597334 0.00204346 0.00514292)
(0.58145 0.00181609 0.00404887)
(0.567167 0.00164537 0.00317073)
(0.554366 0.00151921 0.00247006)
(0.542923 0.00142395 0.00191525)
(0.532707 0.00134724 0.00148595)
(0.523582 0.0012832 0.00116167)
(0.51542 0.00123208 0.000916972)
(0.508115 0.00119595 0.000725817)
(0.501585 0.0011745 0.000568838)
(0.495764 0.00116239 0.000435559)
(0.490586 0.00114967 0.000322927)
(0.485972 0.00112563 0.000232232)
(0.481829 0.00108452 0.000164899)
(0.478063 0.00102942 0.000119779)
(0.4746 0.000969365 9.29668e-05)
(0.471404 0.000912643 7.96872e-05)
(0.468474 0.000863131 7.64684e-05)
(0.465828 0.000820642 8.11505e-05)
(0.963591 -0.00249678 0.0159635)
(0.94255 -0.00598472 0.0306853)
(0.919925 -0.00747557 0.0335173)
(0.889285 -0.00766505 0.0318051)
(0.854223 -0.00745225 0.0293463)
(0.819365 -0.00713288 0.0268365)
(0.786933 -0.00664977 0.0240491)
(0.75711 -0.00597455 0.0209576)
(0.729328 -0.00520018 0.0178078)
(0.703152 -0.00444243 0.014861)
(0.678509 -0.00376711 0.0122532)
(0.65552 -0.00319299 0.0100081)
(0.634312 -0.00271948 0.00809733)
(0.614928 -0.00234005 0.00648458)
(0.597334 -0.00204346 0.00514292)
(0.58145 -0.00181609 0.00404887)
(0.567167 -0.00164537 0.00317073)
(0.554366 -0.00151921 0.00247006)
(0.542923 -0.00142395 0.00191525)
(0.532707 -0.00134724 0.00148595)
(0.523582 -0.0012832 0.00116167)
(0.51542 -0.00123208 0.000916972)
(0.508115 -0.00119595 0.000725817)
(0.501585 -0.0011745 0.000568838)
(0.495764 -0.00116239 0.000435559)
(0.490586 -0.00114967 0.000322928)
(0.485972 -0.00112563 0.000232232)
(0.481829 -0.00108451 0.000164899)
(0.478063 -0.00102942 0.000119779)
(0.4746 -0.000969367 9.29663e-05)
(0.471404 -0.000912645 7.96869e-05)
(0.468474 -0.000863131 7.64687e-05)
(0.465828 -0.000820636 8.11514e-05)
(0.96359 -0.00903869 0.0159389)
(0.945939 -0.0201502 0.0305306)
(0.926298 -0.0240883 0.0333854)
(0.896495 -0.0241926 0.0317931)
(0.8604 -0.0232457 0.0294522)
(0.823595 -0.0218531 0.0269711)
(0.788744 -0.0198447 0.02414)
(0.756093 -0.0173081 0.0209903)
(0.725146 -0.0146295 0.0178029)
(0.695683 -0.0121566 0.0148407)
(0.667869 -0.0100506 0.012231)
(0.641985 -0.00833749 0.00999284)
(0.618227 -0.00698904 0.00809853)
(0.59665 -0.00595762 0.00651354)
(0.5772 -0.00518708 0.00520898)
(0.559761 -0.00462412 0.00415417)
(0.544185 -0.00422414 0.0033093)
(0.530304 -0.00394522 0.00263319)
(0.517954 -0.00374404 0.00209664)
(0.506966 -0.00358575 0.0016817)
(0.497178 -0.00345537 0.00136836)
(0.488436 -0.00335183 0.00112854)
(0.480616 -0.00327601 0.000932951)
(0.473617 -0.00322469 0.000762189)
(0.467362 -0.0031876 0.000609472)
(0.461782 -0.00314616 0.000478099)
(0.4568 -0.00308012 0.00037596)
(0.452331 -0.00297904 0.00030778)
(0.448294 -0.00285011 0.00027116)
(0.44463 -0.0027101 0.000257557)
(0.441309 -0.00257324 0.00025604)
(0.438331 -0.00244713 0.000257914)
(0.435704 -0.00233195 0.000258787)
(0.964165 -0.0221286 0.0161099)
(0.952733 -0.042827 0.0311013)
(0.932928 -0.0476452 0.0343963)
(0.895497 -0.046802 0.0331207)
(0.847502 -0.0444038 0.0308034)
(0.797837 -0.0406232 0.0279935)
(0.750724 -0.035467 0.0246503)
(0.706943 -0.029657 0.0210179)
(0.666318 -0.024072 0.0174941)
(0.628935 -0.0192585 0.0143566)
(0.595082 -0.0154029 0.0117018)
(0.564911 -0.0124802 0.00951013)
(0.538316 -0.0103631 0.00772032)
(0.515 -0.00887865 0.00626869)
(0.494591 -0.00785098 0.00509902)
(0.47671 -0.0071327 0.0041592)
(0.461009 -0.00661179 0.00339889)
(0.447184 -0.00620598 0.00277706)
(0.434973 -0.00586109 0.00227063)
(0.424151 -0.00555021 0.00186755)
(0.414522 -0.00526523 0.00155084)
(0.405918 -0.00500442 0.00129461)
(0.398206 -0.00476653 0.00107345)
(0.391283 -0.00455029 0.000871568)
(0.385075 -0.00435519 0.000685863)
(0.379518 -0.00418103 0.000524877)
(0.374554 -0.00402394 0.000402402)
(0.370117 -0.00386818 0.000327543)
(0.366141 -0.00370666 0.00029858)
(0.362579 -0.00353466 0.000299687)
(0.3594 -0.0033419 0.000310109)
(0.356587 -0.00312251 0.000315095)
(0.354131 -0.00287699 0.000308168)
(0.929058 -0.0154649 0.0159971)
(0.87705 -0.0272373 0.0286946)
(0.808691 -0.0275072 0.0297409)
(0.720129 -0.0240178 0.0267448)
(0.629214 -0.0200739 0.022945)
(0.549476 -0.0160003 0.0187518)
(0.484311 -0.0119348 0.0144182)
(0.432076 -0.00837588 0.0105068)
(0.390325 -0.00570392 0.00742168)
(0.357077 -0.00394716 0.00521241)
(0.330628 -0.00291698 0.00371882)
(0.309401 -0.00238454 0.00273847)
(0.292042 -0.00215454 0.00209611)
(0.277518 -0.00207961 0.00165794)
(0.265099 -0.00206252 0.00133334)
(0.254299 -0.00204992 0.00107011)
(0.244794 -0.00201764 0.000843596)
(0.236368 -0.0019585 0.000645605)
(0.228871 -0.00187679 0.000476239)
(0.222181 -0.00178266 0.000336414)
(0.216193 -0.00168514 0.00022245)
(0.210814 -0.0015891 0.000126836)
(0.205973 -0.0014969 4.26668e-05)
(0.201619 -0.00141044 -3.30564e-05)
(0.197715 -0.00133263 -9.83885e-05)
(0.194225 -0.00126782 -0.000146325)
(0.191106 -0.00121693 -0.000173806)
(0.188298 -0.00117015 -0.000183351)
(0.185737 -0.00112309 -0.000165807)
(0.183378 -0.00107056 -0.000124128)
(0.181204 -0.00100354 -7.14854e-05)
(0.17921 -0.000917738 -1.79505e-05)
(0.177401 -0.000814612 3.02734e-05)
(0.96419 0.0155767 0.0239758)
(0.952759 0.0296621 0.0479461)
(0.932828 0.0322092 0.0554751)
(0.895069 0.0304289 0.056567)
(0.846705 0.0279069 0.055218)
(0.796804 0.0251343 0.0517264)
(0.749629 0.021982 0.0463085)
(0.705949 0.018639 0.0398411)
(0.6656 0.0154793 0.0332897)
(0.628674 0.0127592 0.0272817)
(0.595437 0.0105437 0.0221001)
(0.565978 0.0087833 0.0178116)
(0.540109 0.00739478 0.0143624)
(0.517466 0.00629906 0.0116329)
(0.497627 0.00543168 0.00947856)
(0.480187 0.00474044 0.00776192)
(0.464787 0.00417933 0.00637218)
(0.451126 0.00371088 0.00523109)
(0.438958 0.00331398 0.00428825)
(0.428079 0.00298041 0.0035085)
(0.41831 0.00270133 0.00286069)
(0.409499 0.00246197 0.00231494)
(0.40152 0.00224802 0.00184198)
(0.394279 0.00205217 0.00141567)
(0.387708 0.00187609 0.00102166)
(0.381742 0.00173192 0.000650689)
(0.376323 0.00163913 0.000314871)
(0.371416 0.00159915 6.16161e-06)
(0.367 0.00158651 -0.000269277)
(0.363034 0.00157391 -0.000491957)
(0.359501 0.00153858 -0.000654806)
(0.356394 0.00146638 -0.000757636)
(0.353708 0.00135526 -0.000804783)
(1.00076 0.0221273 0.0239883)
(1.03357 0.0446511 0.0499178)
(1.06519 0.0512767 0.05945)
(1.08468 0.0518614 0.0622746)
(1.09167 0.0512682 0.0631786)
(1.09056 0.0500961 0.0628595)
(1.08494 0.0479681 0.0611008)
(1.07629 0.0449484 0.0580842)
(1.06502 0.0414777 0.0543098)
(1.05151 0.0379654 0.0502325)
(1.03634 0.0346254 0.0461224)
(1.02014 0.0315228 0.0421054)
(1.00346 0.0286661 0.0382428)
(0.986696 0.0260578 0.0345787)
(0.970112 0.0236998 0.0311525)
(0.953907 0.021585 0.0279913)
(0.938228 0.019691 0.0250951)
(0.923164 0.0179872 0.0224437)
(0.90875 0.0164539 0.0200263)
(0.895008 0.0150872 0.0178476)
(0.881979 0.0138778 0.0159025)
(0.869698 0.0127969 0.0141682)
(0.858167 0.0118092 0.0126126)
(0.847356 0.0108973 0.0111992)
(0.837207 0.0100657 0.00990379)
(0.827639 0.009333 0.00872867)
(0.818603 0.00873288 0.00768734)
(0.810125 0.00827777 0.00676762)
(0.802284 0.00792724 0.00593219)
(0.795165 0.00761922 0.00513552)
(0.788834 0.00729482 0.00434093)
(0.783329 0.00691279 0.00353673)
(0.778647 0.00645851 0.00273653)
(1.00033 0.00898643 0.0237946)
(1.02738 0.0210343 0.04993)
(1.05879 0.0261604 0.0592921)
(1.08505 0.027433 0.0616554)
(1.10351 0.0276314 0.0622393)
(1.11593 0.0276183 0.0620749)
(1.12456 0.0272157 0.0608578)
(1.13051 0.026271 0.0585303)
(1.13398 0.0249298 0.0554351)
(1.13501 0.0234397 0.0519859)
(1.13382 0.0219658 0.0484576)
(1.13076 0.0205648 0.044977)
(1.12624 0.0192401 0.0415917)
(1.12058 0.0179925 0.0383284)
(1.11407 0.0168312 0.0352174)
(1.10692 0.0157593 0.0322924)
(1.09933 0.014765 0.029575)
(1.09146 0.0138392 0.0270635)
(1.0834 0.0129879 0.0247436)
(1.07525 0.0122171 0.0226095)
(1.06712 0.0115166 0.0206614)
(1.05909 0.0108633 0.018891)
(1.05124 0.010235 0.0172779)
(1.0436 0.00962847 0.0157996)
(1.03617 0.00906598 0.0144401)
(1.02898 0.00858159 0.0131936)
(1.02202 0.00819594 0.0120648)
(1.01535 0.00789389 0.0110534)
(1.00903 0.00762645 0.010139)
(1.0031 0.00734017 0.00928226)
(0.99761 0.00700204 0.00843966)
(0.992596 0.00660738 0.0075784)
(0.988081 0.00617398 0.00668498)
(1.00039 0.00248348 0.0237285)
(1.02425 0.00622705 0.0499258)
(1.05268 0.0080932 0.0592579)
(1.07779 0.00868988 0.0614041)
(1.09682 0.0088479 0.0617016)
(1.11076 0.00893747 0.0613529)
(1.12142 0.00893627 0.0600779)
(1.12989 0.00876962 0.0577484)
(1.13644 0.00845676 0.0546534)
(1.14105 0.00807191 0.0512063)
(1.1438 0.00767447 0.0477029)
(1.14492 0.00728773 0.0442793)
(1.1447 0.00691331 0.0409774)
(1.14339 0.00655026 0.0378132)
(1.14121 0.00620207 0.0348079)
(1.13834 0.00587223 0.0319909)
(1.13492 0.00556051 0.0293865)
(1.13107 0.00526612 0.0269972)
(1.12687 0.00499017 0.0248057)
(1.1224 0.00473343 0.0227949)
(1.11775 0.00449271 0.0209566)
(1.113 0.00426182 0.019284)
(1.1082 0.00403688 0.0177673)
(1.10338 0.00382033 0.0163921)
(1.09858 0.00362026 0.0151401)
(1.09381 0.00344593 0.0139945)
(1.08912 0.00330159 0.0129454)
(1.08458 0.00318161 0.0119869)
(1.08023 0.00307162 0.0111086)
(1.07611 0.00295615 0.0102892)
(1.07222 0.00282464 0.00949756)
(1.06855 0.00267339 0.00870383)
(1.06509 0.0025054 0.00788818)
(1.00039 -0.00248348 0.0237285)
(1.02425 -0.00622705 0.0499258)
(1.05268 -0.0080932 0.0592579)
(1.07779 -0.00868988 0.0614041)
(1.09682 -0.0088479 0.0617016)
(1.11076 -0.00893747 0.0613529)
(1.12142 -0.00893627 0.0600779)
(1.12989 -0.00876962 0.0577484)
(1.13644 -0.00845676 0.0546534)
(1.14105 -0.00807191 0.0512063)
(1.1438 -0.00767447 0.0477029)
(1.14492 -0.00728773 0.0442793)
(1.1447 -0.00691331 0.0409774)
(1.14339 -0.00655026 0.0378132)
(1.14121 -0.00620207 0.0348079)
(1.13834 -0.00587222 0.0319909)
(1.13492 -0.00556051 0.0293865)
(1.13107 -0.00526612 0.0269972)
(1.12687 -0.00499017 0.0248057)
(1.1224 -0.00473342 0.0227949)
(1.11775 -0.00449271 0.0209566)
(1.113 -0.00426182 0.019284)
(1.1082 -0.00403687 0.0177673)
(1.10338 -0.00382033 0.0163921)
(1.09858 -0.00362026 0.0151401)
(1.09381 -0.00344593 0.0139945)
(1.08912 -0.00330158 0.0129454)
(1.08458 -0.0031816 0.0119869)
(1.08023 -0.00307161 0.0111086)
(1.07611 -0.00295614 0.0102892)
(1.07222 -0.00282464 0.00949756)
(1.06855 -0.0026734 0.00870383)
(1.06509 -0.00250542 0.00788818)
(1.00033 -0.00898643 0.0237946)
(1.02738 -0.0210343 0.04993)
(1.05879 -0.0261604 0.0592921)
(1.08505 -0.027433 0.0616554)
(1.10351 -0.0276314 0.0622393)
(1.11593 -0.0276183 0.0620749)
(1.12456 -0.0272157 0.0608578)
(1.13051 -0.026271 0.0585303)
(1.13398 -0.0249298 0.0554351)
(1.13501 -0.0234397 0.0519859)
(1.13382 -0.0219658 0.0484576)
(1.13076 -0.0205648 0.044977)
(1.12624 -0.0192401 0.0415917)
(1.12058 -0.0179925 0.0383284)
(1.11407 -0.0168312 0.0352174)
(1.10692 -0.0157593 0.0322924)
(1.09933 -0.014765 0.029575)
(1.09146 -0.0138392 0.0270635)
(1.0834 -0.0129879 0.0247436)
(1.07525 -0.0122171 0.0226095)
(1.06712 -0.0115166 0.0206614)
(1.05909 -0.0108633 0.018891)
(1.05124 -0.010235 0.0172779)
(1.0436 -0.00962847 0.0157996)
(1.03617 -0.00906598 0.0144401)
(1.02898 -0.00858159 0.0131936)
(1.02202 -0.00819593 0.0120648)
(1.01535 -0.00789389 0.0110534)
(1.00903 -0.00762644 0.010139)
(1.0031 -0.00734015 0.00928226)
(0.99761 -0.00700204 0.00843966)
(0.992596 -0.00660739 0.0075784)
(0.988081 -0.006174 0.00668497)
(1.00076 -0.0221273 0.0239883)
(1.03357 -0.0446511 0.0499178)
(1.06519 -0.0512767 0.05945)
(1.08468 -0.0518614 0.0622746)
(1.09167 -0.0512682 0.0631786)
(1.09056 -0.0500961 0.0628595)
(1.08494 -0.0479681 0.0611008)
(1.07629 -0.0449484 0.0580842)
(1.06502 -0.0414777 0.0543098)
(1.05151 -0.0379654 0.0502325)
(1.03634 -0.0346254 0.0461224)
(1.02014 -0.0315228 0.0421054)
(1.00346 -0.0286661 0.0382428)
(0.986696 -0.0260578 0.0345787)
(0.970112 -0.0236998 0.0311525)
(0.953907 -0.021585 0.0279913)
(0.938228 -0.019691 0.0250951)
(0.923164 -0.0179872 0.0224437)
(0.90875 -0.0164539 0.0200263)
(0.895008 -0.0150872 0.0178476)
(0.881979 -0.0138778 0.0159025)
(0.869698 -0.0127969 0.0141682)
(0.858167 -0.0118092 0.0126126)
(0.847356 -0.0108973 0.0111992)
(0.837207 -0.0100657 0.00990379)
(0.827639 -0.009333 0.00872867)
(0.818603 -0.00873288 0.00768734)
(0.810125 -0.00827777 0.00676762)
(0.802284 -0.00792724 0.00593219)
(0.795165 -0.00761921 0.00513552)
(0.788834 -0.00729481 0.00434093)
(0.783329 -0.00691279 0.00353673)
(0.778647 -0.00645851 0.00273653)
(0.96419 -0.0155767 0.0239758)
(0.952759 -0.0296621 0.0479461)
(0.932828 -0.0322092 0.0554751)
(0.895069 -0.0304289 0.056567)
(0.846705 -0.0279069 0.055218)
(0.796804 -0.0251343 0.0517264)
(0.749629 -0.021982 0.0463085)
(0.705949 -0.018639 0.0398411)
(0.6656 -0.0154793 0.0332897)
(0.628674 -0.0127592 0.0272817)
(0.595437 -0.0105437 0.0221001)
(0.565978 -0.0087833 0.0178116)
(0.540109 -0.00739478 0.0143624)
(0.517466 -0.00629906 0.0116329)
(0.497627 -0.00543168 0.00947856)
(0.480187 -0.00474044 0.00776192)
(0.464787 -0.00417933 0.00637218)
(0.451126 -0.00371088 0.00523109)
(0.438958 -0.00331398 0.00428825)
(0.428079 -0.00298041 0.0035085)
(0.41831 -0.00270133 0.00286069)
(0.409499 -0.00246197 0.00231494)
(0.40152 -0.00224802 0.00184198)
(0.394279 -0.00205217 0.00141567)
(0.387708 -0.00187609 0.00102166)
(0.381742 -0.00173192 0.000650689)
(0.376323 -0.00163913 0.000314873)
(0.371416 -0.00159915 6.16425e-06)
(0.367 -0.00158651 -0.000269274)
(0.363034 -0.00157391 -0.000491953)
(0.359501 -0.00153857 -0.0006548)
(0.356394 -0.00146638 -0.000757628)
(0.353708 -0.00135526 -0.000804772)
(0.9636 0.0154091 0.0123724)
(0.945605 0.0290954 0.0294118)
(0.925421 0.031209 0.0380744)
(0.894963 0.0291127 0.0413796)
(0.858395 0.0265721 0.0421405)
(0.82154 0.0241356 0.0412561)
(0.787013 0.0215032 0.0388786)
(0.754891 0.0186464 0.0353252)
(0.724587 0.0158155 0.0311381)
(0.695886 0.0132476 0.0268209)
(0.668964 0.0110398 0.0227031)
(0.644067 0.00918433 0.0189563)
(0.621324 0.0076378 0.015654)
(0.600722 0.00635895 0.0128128)
(0.582155 0.00531595 0.0104104)
(0.56547 0.00447855 0.00840124)
(0.550497 0.00380992 0.00673338)
(0.537062 0.00327295 0.00535652)
(0.525003 0.00284221 0.00422177)
(0.514162 0.00250214 0.00328399)
(0.504389 0.00223571 0.00250839)
(0.495544 0.00202116 0.00187269)
(0.487509 0.00183761 0.0013537)
(0.480193 0.00167139 0.000915822)
(0.473514 0.00152332 0.000509206)
(0.467435 0.00141045 0.000103691)
(0.461909 0.00133069 -0.000332329)
(0.456844 0.00129055 -0.000813833)
(0.452194 0.00128834 -0.0013329)
(0.447937 0.00130405 -0.00184935)
(0.444069 0.00131474 -0.00231067)
(0.440604 0.00130194 -0.00267325)
(0.437561 0.00125671 -0.00291166)
(1.00032 0.0219374 0.0123458)
(1.02703 0.0446442 0.0306045)
(1.05807 0.0510764 0.0408997)
(1.08406 0.0511805 0.0460385)
(1.1025 0.0502558 0.048846)
(1.1152 0.0492206 0.0504257)
(1.12438 0.0476019 0.0508636)
(1.13102 0.0452216 0.0501809)
(1.13523 0.0423556 0.0486177)
(1.13701 0.0393634 0.0465018)
(1.13657 0.0364577 0.0440958)
(1.13424 0.0337044 0.0415553)
(1.13041 0.0311061 0.0389625)
(1.12539 0.0286605 0.0363697)
(1.11945 0.0263755 0.0338233)
(1.1128 0.0242657 0.0313631)
(1.10566 0.0223367 0.0290113)
(1.09815 0.020575 0.0267777)
(1.0904 0.0189657 0.0246749)
(1.08251 0.0175035 0.0227134)
(1.07458 0.0161808 0.0208824)
(1.0667 0.0149844 0.0191603)
(1.05894 0.0139006 0.0175383)
(1.05136 0.0129003 0.0160182)
(1.04396 0.0119622 0.0146082)
(1.03673 0.011118 0.0133309)
(1.02969 0.0103799 0.0121883)
(1.02287 0.00975483 0.0111387)
(1.0163 0.00924496 0.0101096)
(1.01005 0.00882245 0.00902492)
(1.00418 0.00844539 0.00783234)
(0.998759 0.00807038 0.00651842)
(0.993845 0.00766405 0.00511066)
(0.99988 0.00884163 0.0122003)
(1.02077 0.0208615 0.0304897)
(1.05144 0.0258611 0.0407206)
(1.08396 0.0268869 0.0456495)
(1.11348 0.0268896 0.0482939)
(1.1392 0.0269043 0.04996)
(1.162 0.0267391 0.0507413)
(1.18261 0.0261219 0.0505483)
(1.20113 0.0251 0.0495195)
(1.21741 0.0238915 0.0479437)
(1.23137 0.0226705 0.0460835)
(1.24313 0.0215055 0.0441011)
(1.25293 0.0204005 0.0420747)
(1.26097 0.0193442 0.0400391)
(1.26747 0.0183346 0.0380162)
(1.2726 0.017379 0.0360294)
(1.27654 0.0164804 0.0341048)
(1.27944 0.0156382 0.0322647)
(1.28143 0.0148556 0.0305242)
(1.28263 0.0141334 0.0288873)
(1.28313 0.0134644 0.0273425)
(1.28303 0.012836 0.0258647)
(1.28243 0.0122319 0.0244354)
(1.28142 0.0116418 0.023057)
(1.28007 0.0110757 0.021749)
(1.27844 0.0105595 0.0205354)
(1.27658 0.0101082 0.0194267)
(1.27452 0.00972111 0.0184048)
(1.27232 0.00938025 0.017426)
(1.27003 0.00905287 0.0164359)
(1.26769 0.00870652 0.0153869)
(1.26536 0.00832432 0.0142498)
(1.26307 0.00791558 0.0130163)
(0.999942 0.00244399 0.0121388)
(1.01762 0.00617435 0.0303974)
(1.04525 0.00802244 0.0406089)
(1.07661 0.00856402 0.0454204)
(1.10671 0.00867509 0.0479122)
(1.13388 0.0087709 0.0494654)
(1.15853 0.00883628 0.0501967)
(1.18135 0.00876761 0.0499807)
(1.20256 0.00855474 0.0489229)
(1.22199 0.00826212 0.0473118)
(1.23948 0.00795238 0.0454293)
(1.25506 0.00765315 0.0434526)
(1.26887 0.0073659 0.0414644)
(1.2811 0.00708433 0.0394975)
(1.2919 0.00680572 0.0375693)
(1.30141 0.00653241 0.0356976)
(1.30975 0.00626816 0.0339043)
(1.31707 0.00601588 0.0322092)
(1.32345 0.005777 0.0306253)
(1.329 0.00555058 0.0291553)
(1.3338 0.00533362 0.0277874)
(1.33791 0.00512241 0.0264974)
(1.3414 0.00491533 0.0252628)
(1.34435 0.00471392 0.0240775)
(1.34681 0.00452155 0.0229503)
(1.34885 0.00434286 0.0218967)
(1.35053 0.00418059 0.0209259)
(1.35191 0.0040331 0.0200274)
(1.35302 0.00389496 0.0191703)
(1.35389 0.00375901 0.0183137)
(1.35456 0.00361887 0.017419)
(1.35504 0.0034711 0.0164592)
(1.35533 0.00331576 0.0154242)
(0.999942 -0.00244399 0.0121388)
(1.01762 -0.00617435 0.0303974)
(1.04525 -0.00802244 0.0406089)
(1.07661 -0.00856402 0.0454204)
(1.10671 -0.00867509 0.0479122)
(1.13388 -0.0087709 0.0494654)
(1.15853 -0.00883628 0.0501967)
(1.18135 -0.00876761 0.0499807)
(1.20256 -0.00855474 0.0489229)
(1.22199 -0.00826212 0.0473118)
(1.23948 -0.00795238 0.0454293)
(1.25506 -0.00765315 0.0434526)
(1.26887 -0.0073659 0.0414644)
(1.2811 -0.00708433 0.0394975)
(1.2919 -0.00680572 0.0375693)
(1.30141 -0.00653241 0.0356976)
(1.30975 -0.00626816 0.0339043)
(1.31707 -0.00601588 0.0322092)
(1.32345 -0.005777 0.0306253)
(1.329 -0.00555058 0.0291553)
(1.3338 -0.00533362 0.0277874)
(1.33791 -0.00512241 0.0264974)
(1.3414 -0.00491533 0.0252628)
(1.34435 -0.00471392 0.0240775)
(1.34681 -0.00452154 0.0229503)
(1.34885 -0.00434285 0.0218967)
(1.35053 -0.00418059 0.0209259)
(1.35191 -0.0040331 0.0200274)
(1.35302 -0.00389496 0.0191703)
(1.35389 -0.00375901 0.0183137)
(1.35456 -0.00361887 0.017419)
(1.35504 -0.00347109 0.0164592)
(1.35533 -0.00331575 0.0154242)
(0.99988 -0.00884163 0.0122003)
(1.02077 -0.0208615 0.0304897)
(1.05144 -0.0258611 0.0407206)
(1.08396 -0.0268869 0.0456495)
(1.11348 -0.0268896 0.0482939)
(1.1392 -0.0269043 0.04996)
(1.162 -0.0267391 0.0507413)
(1.18261 -0.0261219 0.0505483)
(1.20113 -0.0251 0.0495195)
(1.21741 -0.0238915 0.0479437)
(1.23137 -0.0226705 0.0460835)
(1.24313 -0.0215055 0.0441011)
(1.25293 -0.0204005 0.0420747)
(1.26097 -0.0193442 0.0400391)
(1.26747 -0.0183346 0.0380162)
(1.2726 -0.017379 0.0360294)
(1.27654 -0.0164804 0.0341048)
(1.27944 -0.0156382 0.0322647)
(1.28143 -0.0148556 0.0305242)
(1.28263 -0.0141334 0.0288873)
(1.28313 -0.0134644 0.0273425)
(1.28303 -0.012836 0.0258647)
(1.28243 -0.0122319 0.0244354)
(1.28142 -0.0116418 0.023057)
(1.28007 -0.0110757 0.021749)
(1.27844 -0.0105595 0.0205354)
(1.27658 -0.0101082 0.0194267)
(1.27452 -0.00972111 0.0184048)
(1.27232 -0.00938025 0.017426)
(1.27003 -0.00905286 0.0164359)
(1.26769 -0.0087065 0.0153869)
(1.26536 -0.00832431 0.0142498)
(1.26307 -0.00791558 0.0130163)
(1.00032 -0.0219374 0.0123458)
(1.02703 -0.0446442 0.0306045)
(1.05807 -0.0510764 0.0408997)
(1.08406 -0.0511805 0.0460385)
(1.1025 -0.0502558 0.048846)
(1.1152 -0.0492206 0.0504257)
(1.12438 -0.0476019 0.0508636)
(1.13102 -0.0452216 0.0501809)
(1.13523 -0.0423556 0.0486177)
(1.13701 -0.0393634 0.0465018)
(1.13657 -0.0364577 0.0440958)
(1.13424 -0.0337044 0.0415553)
(1.13041 -0.0311061 0.0389625)
(1.12539 -0.0286605 0.0363697)
(1.11945 -0.0263755 0.0338233)
(1.1128 -0.0242657 0.0313631)
(1.10566 -0.0223367 0.0290113)
(1.09815 -0.020575 0.0267777)
(1.0904 -0.0189657 0.0246749)
(1.08251 -0.0175035 0.0227134)
(1.07458 -0.0161808 0.0208824)
(1.0667 -0.0149844 0.0191603)
(1.05894 -0.0139006 0.0175383)
(1.05136 -0.0129003 0.0160182)
(1.04396 -0.0119622 0.0146082)
(1.03673 -0.011118 0.0133309)
(1.02969 -0.0103799 0.0121883)
(1.02287 -0.00975483 0.0111387)
(1.0163 -0.00924495 0.0101096)
(1.01005 -0.00882245 0.00902492)
(1.00418 -0.00844538 0.00783234)
(0.998759 -0.00807037 0.00651842)
(0.993845 -0.00766405 0.00511065)
(0.9636 -0.0154091 0.0123724)
(0.945605 -0.0290954 0.0294118)
(0.925421 -0.031209 0.0380744)
(0.894963 -0.0291127 0.0413796)
(0.858395 -0.0265721 0.0421405)
(0.82154 -0.0241356 0.0412561)
(0.787013 -0.0215032 0.0388786)
(0.754891 -0.0186464 0.0353252)
(0.724587 -0.0158155 0.0311381)
(0.695886 -0.0132476 0.0268209)
(0.668964 -0.0110398 0.0227031)
(0.644067 -0.00918433 0.0189563)
(0.621324 -0.0076378 0.015654)
(0.600722 -0.00635895 0.0128128)
(0.582155 -0.00531595 0.0104104)
(0.56547 -0.00447855 0.00840124)
(0.550497 -0.00380992 0.00673338)
(0.537062 -0.00327295 0.00535652)
(0.525003 -0.00284221 0.00422177)
(0.514162 -0.00250214 0.00328399)
(0.504389 -0.00223571 0.00250839)
(0.495544 -0.00202116 0.00187269)
(0.487509 -0.00183761 0.0013537)
(0.480193 -0.00167139 0.000915822)
(0.473514 -0.00152332 0.000509206)
(0.467435 -0.00141045 0.00010369)
(0.461909 -0.00133069 -0.000332328)
(0.456844 -0.00129055 -0.00081383)
(0.452194 -0.00128834 -0.00133289)
(0.447937 -0.00130405 -0.00184934)
(0.444069 -0.00131474 -0.00231066)
(0.440604 -0.00130193 -0.00267324)
(0.437561 -0.00125671 -0.00291165)
(0.963589 0.0154437 0.00752004)
(0.941253 0.0292992 0.0197212)
(0.916572 0.0314075 0.027745)
(0.88371 0.0291722 0.0319158)
(0.847075 0.0264735 0.0335855)
(0.811681 0.0239657 0.0337085)
(0.77956 0.0213495 0.0326467)
(0.750548 0.0185398 0.0305911)
(0.723879 0.0157402 0.0278215)
(0.699073 0.013176 0.0246831)
(0.676025 0.01095 0.0214704)
(0.65477 0.00906049 0.0183716)
(0.635326 0.00746694 0.0154926)
(0.617645 0.00612975 0.012896)
(0.60163 0.00502117 0.0106092)
(0.587162 0.00411799 0.00862435)
(0.574114 0.00339194 0.00691414)
(0.56236 0.00281061 0.00545135)
(0.551776 0.00234707 0.00421037)
(0.542238 0.001983 0.00316478)
(0.533622 0.00170205 0.00229113)
(0.525811 0.00148422 0.00156723)
(0.51871 0.00130656 0.000968511)
(0.512228 0.0011532 0.000463329)
(0.506313 0.00102825 1.44398e-05)
(0.500933 0.000920373 -0.000420741)
(0.496009 0.000834091 -0.000909892)
(0.491482 0.000777263 -0.00147647)
(0.487296 0.000749039 -0.00210495)
(0.483407 0.000741323 -0.00276033)
(0.479796 0.000742944 -0.00339086)
(0.47647 0.000741825 -0.00393924)
(0.473451 0.000727901 -0.00435594)
(1.00038 0.0218781 0.00754057)
(1.02303 0.0446831 0.0204594)
(1.0497 0.0511194 0.029615)
(1.07311 0.0510118 0.0352967)
(1.09106 0.0497708 0.038698)
(1.10471 0.0484982 0.0407692)
(1.11577 0.0467696 0.041878)
(1.12506 0.0443449 0.0421193)
(1.13272 0.0414378 0.0416047)
(1.13864 0.0383962 0.0405243)
(1.14286 0.0354495 0.0390786)
(1.14556 0.032675 0.0374189)
(1.14696 0.0300723 0.0356332)
(1.14727 0.0276294 0.0337694)
(1.14666 0.0253485 0.0318677)
(1.14528 0.0232444 0.02997)
(1.14327 0.0213296 0.0281058)
(1.14075 0.0195958 0.0262966)
(1.13778 0.0180216 0.0245594)
(1.13446 0.0165912 0.0228959)
(1.13087 0.0152897 0.0213007)
(1.12708 0.0141111 0.0197722)
(1.12316 0.0130566 0.0183081)
(1.11915 0.0121008 0.0169109)
(1.11506 0.0112353 0.0156013)
(1.11094 0.0104465 0.0144007)
(1.1068 0.00972864 0.0133051)
(1.10269 0.0090868 0.0122855)
(1.09863 0.00852402 0.0112827)
(1.09465 0.00803139 0.0102234)
(1.09077 0.00758845 0.00904049)
(1.087 0.00716844 0.0076894)
(1.08338 0.00674415 0.00616714)
(0.999942 0.00877949 0.00749212)
(1.01674 0.0207585 0.0204795)
(1.04299 0.0257185 0.0297253)
(1.07295 0.0265972 0.0354108)
(1.10203 0.0264127 0.0388093)
(1.1287 0.0262799 0.0409677)
(1.15325 0.0260332 0.0423067)
(1.17624 0.025362 0.0429026)
(1.1978 0.024272 0.0428196)
(1.21775 0.0229754 0.0422113)
(1.23593 0.0216654 0.0412644)
(1.25231 0.0204283 0.0401291)
(1.26701 0.0192736 0.0388955)
(1.28017 0.0181867 0.0376033)
(1.29192 0.0171597 0.0362674)
(1.30239 0.0161981 0.0349016)
(1.3117 0.0153105 0.0335269)
(1.31997 0.0144998 0.032171)
(1.32728 0.0137632 0.0308593)
(1.33374 0.0130929 0.0296022)
(1.33942 0.0124763 0.0283915)
(1.34439 0.0119017 0.0272088)
(1.34872 0.0113607 0.0260407)
(1.35248 0.0108472 0.0248874)
(1.35572 0.0103664 0.0237648)
(1.35852 0.00992251 0.0226968)
(1.36093 0.00951836 0.0216976)
(1.36299 0.00915235 0.0207609)
(1.36474 0.00881384 0.0198577)
(1.36621 0.00848504 0.0189446)
(1.36739 0.00814808 0.0179752)
(1.3683 0.00779484 0.0169095)
(1.36897 0.00742366 0.0157203)
(1.00001 0.00242204 0.00746259)
(1.01359 0.00612964 0.0204416)
(1.03674 0.00796699 0.029717)
(1.0655 0.00846812 0.0353839)
(1.09517 0.00852885 0.0387326)
(1.12333 0.00858261 0.0408403)
(1.14974 0.00862296 0.0421496)
(1.17489 0.00853502 0.0427322)
(1.19902 0.00829626 0.042639)
(1.22198 0.0079702 0.0420206)
(1.2435 0.00762691 0.0410717)
(1.26346 0.00730025 0.0399521)
(1.28192 0.00699368 0.0387586)
(1.29898 0.0067004 0.0375364)
(1.31475 0.00641613 0.0363001)
(1.32932 0.00614227 0.0350558)
(1.34278 0.00588293 0.033815)
(1.35522 0.00564089 0.0325984)
(1.36672 0.00541631 0.0314309)
(1.37736 0.0052072 0.0303303)
(1.38723 0.00500994 0.0292964)
(1.39636 0.00482143 0.0283127)
(1.40481 0.00464107 0.0273565)
(1.41261 0.00446938 0.0264098)
(1.41982 0.00430689 0.0254715)