/*--------------------------------*- C++ -*----------------------------------*\
| =========                 |                                                 |
| \\      /  F ield         | OpenFOAM: The Open Source CFD Toolbox           |
|  \\    /   O peration     | Version:  2412                                  |
|   \\  /    A nd           | Website:  www.openfoam.com                      |
|    \\/     M anipulation  |                                                 |
\*---------------------------------------------------------------------------*/
FoamFile
{
    version     2.0;
    format      ascii;
    arch        "LSB;label=32;scalar=64";
    class       volVectorField;
    location    "2.006708";
    object      U_0;
}
// * * * * * * * * * * * * * * * * * * * * * * * * * * * * * * * * * * * * * //

dimensions      [0 1 -1 0 0 0 0];

internalField   nonuniform List<vector> 
16000
(
(0.929057 0.0154611 0.0159935)
(0.877038 0.0272317 0.0286891)
(0.808679 0.0275025 0.0297362)
(0.720121 0.0240135 0.0267407)
(0.629208 0.02007 0.0229412)
(0.549471 0.0159971 0.0187486)
(0.484306 0.0119325 0.0144158)
(0.432073 0.00837413 0.0105049)
(0.390324 0.00570258 0.00742001)
(0.357079 0.00394626 0.00521104)
(0.330632 0.00291659 0.00371757)
(0.309406 0.00238449 0.00273703)
(0.292049 0.00215456 0.0020944)
(0.277528 0.00207977 0.00165611)
(0.265113 0.00206336 0.00133142)
(0.254316 0.00205165 0.00106787)
(0.244814 0.00201981 0.000840795)
(0.236394 0.00196087 0.000642583)
(0.228902 0.00188005 0.00047384)
(0.222217 0.0017877 0.000334775)
(0.21623 0.00169202 0.0002203)
(0.210851 0.00159728 0.000122339)
(0.206013 0.00150596 3.48247e-05)
(0.201667 0.00142063 -4.35591e-05)
(0.197776 0.00134521 -0.00010873)
(0.1943 0.0012841 -0.000153109)
(0.191194 0.0012368 -0.00017552)
(0.18839 0.00118911 -0.000180499)
(0.185824 0.00113969 -0.000155453)
(0.183464 0.0010809 -0.00010897)
(0.181294 0.00100461 -5.458e-05)
(0.179315 0.000908476 -1.63891e-06)
(0.177535 0.000795959 4.45282e-05)
(0.964165 0.0221258 0.0161063)
(0.952729 0.0428244 0.0310959)
(0.932923 0.0476437 0.0343915)
(0.895495 0.0468003 0.0331172)
(0.847501 0.0444021 0.0308005)
(0.797836 0.0406219 0.0279907)
(0.750723 0.0354658 0.0246478)
(0.706942 0.0296561 0.0210159)
(0.666319 0.0240712 0.0174922)
(0.628937 0.0192576 0.0143549)
(0.595085 0.0154024 0.0117004)
(0.564916 0.0124805 0.00950856)
(0.538323 0.0103637 0.00771813)
(0.515011 0.00887851 0.00626638)
(0.494607 0.00785063 0.00509743)
(0.476731 0.00713359 0.00415769)
(0.461037 0.00661433 0.00339567)
(0.44722 0.00620921 0.00277205)
(0.435019 0.00586447 0.00226655)
(0.424209 0.0055548 0.0018666)
(0.41459 0.00527272 0.00155147)
(0.405998 0.00501603 0.00129257)
(0.3983 0.00478302 0.00106511)
(0.391399 0.00457209 0.000856388)
(0.385221 0.00438251 0.000667165)
(0.379699 0.00421341 0.000508485)
(0.374773 0.0040591 0.000393772)
(0.370374 0.00389901 0.000328597)
(0.366436 0.0037305 0.000307404)
(0.362918 0.00354622 0.000310985)
(0.359793 0.00333668 0.000318788)
(0.357047 0.00309839 0.000318295)
(0.35467 0.00283421 0.000305162)
(0.96359 0.00903969 0.0159354)
(0.945934 0.0201532 0.030525)
(0.926292 0.0240918 0.0333804)
(0.896491 0.0241955 0.0317893)
(0.860397 0.0232479 0.0294491)
(0.823593 0.0218549 0.0269679)
(0.788742 0.0198459 0.024137)
(0.75609 0.0173091 0.0209879)
(0.725144 0.0146303 0.0178009)
(0.695684 0.0121568 0.0148386)
(0.667871 0.0100506 0.012229)
(0.641988 0.00833808 0.00999101)
(0.618232 0.00699019 0.00809644)
(0.596658 0.00595798 0.00651117)
(0.577212 0.0051859 0.00520698)
(0.559779 0.00462291 0.00415232)
(0.544207 0.00422506 0.0033061)
(0.530333 0.00394772 0.0026282)
(0.517991 0.00374515 0.00209187)
(0.507013 0.00358419 0.00167927)
(0.497233 0.00345369 0.00136741)
(0.488501 0.00335439 0.00112548)
(0.480696 0.00328597 0.000924356)
(0.473722 0.00324199 0.000747235)
(0.4675 0.00320803 0.00059031)
(0.461958 0.00316271 0.000458646)
(0.457013 0.0030869 0.000359717)
(0.452574 0.00297401 0.000296)
(0.448563 0.00283636 0.000262959)
(0.444927 0.00269185 0.000250781)
(0.441647 0.00255348 0.000248589)
(0.438727 0.0024267 0.000248799)
(0.436175 0.00230952 0.000248208)
(0.963591 0.0024968 0.0159602)
(0.942544 0.00598508 0.0306796)
(0.919918 0.00747593 0.0335119)
(0.88928 0.00766494 0.0318011)
(0.854219 0.00745175 0.0293428)
(0.819362 0.0071322 0.0268329)
(0.786931 0.00664893 0.0240457)
(0.757107 0.00597361 0.020955)
(0.729326 0.00519924 0.0178057)
(0.703153 0.00444155 0.0148587)
(0.678511 0.00376635 0.0122508)
(0.655523 0.00319239 0.010006)
(0.634316 0.00271904 0.00809524)
(0.614935 0.00233953 0.00648212)
(0.597345 0.00204263 0.00514047)
(0.581465 0.00181527 0.00404674)
(0.567186 0.00164517 0.00316789)
(0.554391 0.00151947 0.00246551)
(0.542953 0.00142363 0.00190998)
(0.532744 0.00134568 0.00148193)
(0.523625 0.00128125 0.00115902)
(0.515469 0.00123178 0.000913332)
(0.508177 0.00119905 0.000718352)
(0.501671 0.00118095 0.000556195)
(0.495882 0.00116995 0.000418423)
(0.49074 0.00115482 0.000303342)
(0.486158 0.00112538 0.000212275)
(0.482034 0.00107811 0.000145618)
(0.478277 0.00101868 0.00010109)
(0.474821 0.000956993 7.4306e-05)
(0.471641 0.00090044 6.08829e-05)
(0.468744 0.000851535 5.80429e-05)
(0.466153 0.000809149 6.39123e-05)
(0.963591 -0.0024968 0.0159602)
(0.942544 -0.00598508 0.0306796)
(0.919918 -0.00747593 0.0335119)
(0.88928 -0.00766494 0.0318011)
(0.854219 -0.00745175 0.0293428)
(0.819362 -0.0071322 0.0268329)
(0.786931 -0.00664893 0.0240457)
(0.757107 -0.00597361 0.020955)
(0.729326 -0.00519924 0.0178057)
(0.703153 -0.00444155 0.0148587)
(0.678511 -0.00376635 0.0122508)
(0.655523 -0.00319239 0.010006)
(0.634316 -0.00271904 0.00809524)
(0.614935 -0.00233953 0.00648212)
(0.597345 -0.00204263 0.00514047)
(0.581465 -0.00181527 0.00404674)
(0.567186 -0.00164517 0.00316789)
(0.554391 -0.00151947 0.00246551)
(0.542953 -0.00142363 0.00190998)
(0.532744 -0.00134568 0.00148193)
(0.523625 -0.00128124 0.00115902)
(0.515469 -0.00123178 0.000913332)
(0.508177 -0.00119905 0.000718352)
(0.501671 -0.00118095 0.000556195)
(0.495882 -0.00116995 0.000418423)
(0.49074 -0.00115481 0.000303343)
(0.486158 -0.00112538 0.000212275)
(0.482034 -0.00107811 0.000145618)
(0.478277 -0.00101868 0.00010109)
(0.474821 -0.000956996 7.43055e-05)
(0.471641 -0.000900442 6.08828e-05)
(0.468744 -0.000851534 5.80434e-05)
(0.466153 -0.00080914 6.39135e-05)
(0.96359 -0.00903969 0.0159354)
(0.945934 -0.0201532 0.030525)
(0.926292 -0.0240918 0.0333804)
(0.896491 -0.0241955 0.0317893)
(0.860397 -0.0232479 0.0294491)
(0.823593 -0.0218549 0.0269679)
(0.788742 -0.0198459 0.024137)
(0.75609 -0.0173091 0.0209879)
(0.725144 -0.0146303 0.0178009)
(0.695684 -0.0121568 0.0148386)
(0.667871 -0.0100506 0.012229)
(0.641988 -0.00833808 0.00999101)
(0.618232 -0.00699019 0.00809644)
(0.596658 -0.00595798 0.00651117)
(0.577212 -0.00518589 0.00520698)
(0.559779 -0.00462291 0.00415232)
(0.544207 -0.00422506 0.0033061)
(0.530333 -0.00394772 0.0026282)
(0.517991 -0.00374515 0.00209187)
(0.507013 -0.00358419 0.00167927)
(0.497233 -0.00345369 0.00136741)
(0.488501 -0.00335439 0.00112548)
(0.480696 -0.00328597 0.000924356)
(0.473722 -0.00324199 0.000747235)
(0.4675 -0.00320802 0.000590311)
(0.461958 -0.00316271 0.000458647)
(0.457013 -0.00308689 0.000359717)
(0.452574 -0.00297401 0.000296)
(0.448563 -0.00283636 0.000262958)
(0.444927 -0.00269186 0.000250779)
(0.441647 -0.00255348 0.000248588)
(0.438727 -0.00242669 0.0002488)
(0.436175 -0.00230951 0.000248211)
(0.964165 -0.0221258 0.0161063)
(0.952729 -0.0428244 0.0310959)
(0.932923 -0.0476437 0.0343915)
(0.895495 -0.0468003 0.0331172)
(0.847501 -0.0444021 0.0308005)
(0.797836 -0.0406219 0.0279907)
(0.750723 -0.0354658 0.0246478)
(0.706942 -0.0296561 0.0210159)
(0.666319 -0.0240712 0.0174922)
(0.628937 -0.0192576 0.0143549)
(0.595085 -0.0154024 0.0117004)
(0.564916 -0.0124805 0.00950856)
(0.538323 -0.0103637 0.00771813)
(0.515011 -0.00887851 0.00626638)
(0.494607 -0.00785063 0.00509743)
(0.476731 -0.00713359 0.00415769)
(0.461037 -0.00661433 0.00339567)
(0.44722 -0.00620921 0.00277205)
(0.435019 -0.00586447 0.00226655)
(0.424209 -0.0055548 0.0018666)
(0.41459 -0.00527271 0.00155147)
(0.405998 -0.00501603 0.00129257)
(0.3983 -0.00478302 0.00106511)
(0.391399 -0.00457209 0.000856389)
(0.385221 -0.00438251 0.000667166)
(0.379699 -0.00421341 0.000508486)
(0.374773 -0.0040591 0.000393773)
(0.370374 -0.00389901 0.000328597)
(0.366436 -0.00373049 0.000307404)
(0.362918 -0.00354621 0.000310985)
(0.359793 -0.00333668 0.00031879)
(0.357047 -0.00309838 0.000318298)
(0.35467 -0.0028342 0.000305166)
(0.929057 -0.0154611 0.0159935)
(0.877038 -0.0272317 0.0286891)
(0.808679 -0.0275025 0.0297362)
(0.720121 -0.0240135 0.0267407)
(0.629208 -0.02007 0.0229412)
(0.549471 -0.0159971 0.0187486)
(0.484306 -0.0119325 0.0144158)
(0.432073 -0.00837413 0.0105049)
(0.390324 -0.00570258 0.00742001)
(0.357079 -0.00394626 0.00521104)
(0.330632 -0.00291659 0.00371757)
(0.309406 -0.00238449 0.00273703)
(0.292049 -0.00215456 0.0020944)
(0.277528 -0.00207977 0.00165611)
(0.265113 -0.00206336 0.00133142)
(0.254316 -0.00205165 0.00106787)
(0.244814 -0.00201981 0.000840795)
(0.236394 -0.00196087 0.000642583)
(0.228902 -0.00188005 0.000473841)
(0.222217 -0.0017877 0.000334775)
(0.21623 -0.00169202 0.0002203)
(0.210851 -0.00159728 0.000122339)
(0.206013 -0.00150596 3.48248e-05)
(0.201667 -0.00142063 -4.35588e-05)
(0.197776 -0.00134521 -0.000108729)
(0.1943 -0.0012841 -0.000153109)
(0.191194 -0.0012368 -0.00017552)
(0.18839 -0.00118911 -0.000180498)
(0.185824 -0.00113969 -0.000155452)
(0.183464 -0.00108089 -0.000108967)
(0.181294 -0.00100461 -5.45766e-05)
(0.179315 -0.000908472 -1.63452e-06)
(0.177535 -0.000795955 4.45333e-05)
(0.96419 0.015573 0.0239731)
(0.952755 0.0296566 0.0479432)
(0.932823 0.0322044 0.0554731)
(0.895067 0.0304251 0.0565651)
(0.846705 0.0279037 0.055216)
(0.796803 0.0251315 0.0517242)
(0.749627 0.0219796 0.0463065)
(0.705948 0.0186369 0.0398391)
(0.6656 0.0154776 0.0332872)
(0.628676 0.0127579 0.0272791)
(0.595441 0.0105428 0.0220973)
(0.565983 0.00878263 0.0178079)
(0.540116 0.00739398 0.0143573)
(0.517476 0.00629825 0.0116267)
(0.497642 0.00543169 0.00947117)
(0.480206 0.00474134 0.00775258)
(0.464811 0.0041798 0.00636012)
(0.451157 0.00371051 0.00521662)
(0.438999 0.00331471 0.00427262)
(0.428129 0.00298413 0.00349232)
(0.418369 0.00270721 0.00284309)
(0.409563 0.00246723 0.00229356)
(0.401592 0.00225059 0.00181304)
(0.394362 0.0020525 0.00137627)
(0.387808 0.00187771 0.000971302)
(0.38186 0.00174116 0.000590281)
(0.37646 0.00166176 0.0002506)
(0.371585 0.00163212 -6.43322e-05)
(0.367207 0.00162131 -0.000337823)
(0.363287 0.00160203 -0.000553065)
(0.359815 0.00155279 -0.000704946)
(0.356786 0.00146306 -0.000794909)
(0.354193 0.00133467 -0.000828677)
(1.00076 0.0221247 0.0239856)
(1.03357 0.0446482 0.0499148)
(1.06519 0.051275 0.0594479)
(1.08469 0.0518602 0.0622728)
(1.09167 0.0512669 0.0631769)
(1.09056 0.0500958 0.0628587)
(1.08494 0.0479684 0.0611005)
(1.07629 0.0449479 0.0580823)
(1.06503 0.0414763 0.0543064)
(1.05152 0.0379649 0.0502302)
(1.03634 0.0346265 0.046122)
(1.02015 0.0315238 0.0421043)
(1.00347 0.0286656 0.0382381)
(0.986704 0.0260567 0.0345711)
(0.970123 0.0237003 0.0311459)
(0.953925 0.021587 0.0279868)
(0.938257 0.0196917 0.0250882)
(0.9232 0.0179851 0.0224303)
(0.908785 0.0164529 0.0200093)
(0.895047 0.0150925 0.0178321)
(0.882035 0.0138883 0.0158888)
(0.869783 0.0128052 0.0141522)
(0.858284 0.0118094 0.0125877)
(0.847497 0.0108913 0.0111604)
(0.837358 0.0100619 0.00985379)
(0.827789 0.00934483 0.00867659)
(0.818759 0.00877367 0.00763909)
(0.810319 0.00834496 0.00671788)
(0.802558 0.00800354 0.00586883)
(0.795561 0.00768368 0.00504429)
(0.789391 0.00732847 0.00421308)
(0.784075 0.00690391 0.00337324)
(0.779597 0.0064043 0.00254716)
(1.00033 0.00898758 0.0237922)
(1.02738 0.0210373 0.0499271)
(1.0588 0.0261643 0.0592901)
(1.08505 0.0274362 0.0616536)
(1.10351 0.0276339 0.0622376)
(1.11593 0.0276214 0.0620742)
(1.12457 0.0272192 0.0608577)
(1.13051 0.0262731 0.058529)
(1.13399 0.0249305 0.0554318)
(1.13502 0.0234409 0.0519824)
(1.13382 0.0219684 0.0484565)
(1.13077 0.0205671 0.0449775)
(1.12624 0.0192409 0.0415902)
(1.12059 0.017993 0.0383224)
(1.11407 0.0168332 0.0352087)
(1.10693 0.015761 0.0322849)
(1.09936 0.0147637 0.0295698)
(1.09148 0.0138365 0.027057)
(1.08343 0.0129887 0.0247331)
(1.07528 0.0122232 0.0225961)
(1.06716 0.0115239 0.020647)
(1.05915 0.0108644 0.0188747)
(1.05132 0.0102264 0.0172565)
(1.0437 0.00961509 0.0157708)
(1.03629 0.00906015 0.0144043)
(1.0291 0.0085953 0.0131548)
(1.02216 0.00823198 0.0120276)
(1.01553 0.0079415 0.0110172)
(1.00926 0.00766714 0.0100953)
(1.00341 0.00735756 0.00921734)
(0.998018 0.00698794 0.0083403)
(0.993117 0.00656253 0.00743643)
(0.988731 0.00610475 0.00649954)
(1.00039 0.00248354 0.0237262)
(1.02426 0.00622744 0.0499231)
(1.05268 0.00809366 0.0592558)
(1.07779 0.00868983 0.0614022)
(1.09682 0.00884735 0.0616998)
(1.11076 0.00893708 0.0613521)
(1.12142 0.00893613 0.0600777)
(1.12989 0.00876902 0.0577469)
(1.13644 0.00845544 0.0546498)
(1.14105 0.00807066 0.0512025)
(1.14381 0.00767405 0.0477013)
(1.14493 0.00728776 0.0442797)
(1.14471 0.00691283 0.0409763)
(1.1434 0.0065492 0.0378073)
(1.14122 0.0062011 0.0347982)
(1.13835 0.00587153 0.0319819)
(1.13494 0.00555981 0.0293812)
(1.13109 0.00526557 0.0269932)
(1.12689 0.00499028 0.0247978)
(1.12243 0.00473415 0.0227815)
(1.11779 0.00449288 0.0209391)
(1.11304 0.00425997 0.0192647)
(1.10826 0.00403297 0.0177475)
(1.10346 0.00381642 0.0163707)
(1.09866 0.00361955 0.0151143)
(1.0939 0.00345105 0.0139629)
(1.08924 0.00331268 0.0129085)
(1.08474 0.00319549 0.0119449)
(1.08045 0.00308322 0.0110586)
(1.07639 0.00296067 0.0102235)
(1.07256 0.00281885 0.00940591)
(1.06895 0.00265613 0.00857707)
(1.06554 0.00247758 0.00772114)
(1.00039 -0.00248354 0.0237262)
(1.02426 -0.00622744 0.0499231)
(1.05268 -0.00809366 0.0592558)
(1.07779 -0.00868983 0.0614022)
(1.09682 -0.00884735 0.0616998)
(1.11076 -0.00893708 0.0613521)
(1.12142 -0.00893613 0.0600777)
(1.12989 -0.00876902 0.0577469)
(1.13644 -0.00845544 0.0546498)
(1.14105 -0.00807066 0.0512025)
(1.14381 -0.00767405 0.0477013)
(1.14493 -0.00728776 0.0442797)
(1.14471 -0.00691283 0.0409763)
(1.1434 -0.0065492 0.0378073)
(1.14122 -0.0062011 0.0347982)
(1.13835 -0.00587153 0.0319819)
(1.13494 -0.00555981 0.0293812)
(1.13109 -0.00526557 0.0269932)
(1.12689 -0.00499028 0.0247978)
(1.12243 -0.00473415 0.0227815)
(1.11779 -0.00449288 0.0209391)
(1.11304 -0.00425996 0.0192647)
(1.10826 -0.00403297 0.0177475)
(1.10346 -0.00381642 0.0163707)
(1.09866 -0.00361955 0.0151143)
(1.0939 -0.00345105 0.0139629)
(1.08924 -0.00331267 0.0129085)
(1.08474 -0.00319548 0.0119449)
(1.08045 -0.00308321 0.0110586)
(1.07639 -0.00296066 0.0102235)
(1.07256 -0.00281885 0.00940591)
(1.06895 -0.00265615 0.00857707)
(1.06554 -0.00247761 0.00772114)
(1.00033 -0.00898758 0.0237922)
(1.02738 -0.0210373 0.0499271)
(1.0588 -0.0261643 0.0592901)
(1.08505 -0.0274362 0.0616536)
(1.10351 -0.0276339 0.0622376)
(1.11593 -0.0276214 0.0620742)
(1.12457 -0.0272192 0.0608577)
(1.13051 -0.0262731 0.058529)
(1.13399 -0.0249305 0.0554318)
(1.13502 -0.0234409 0.0519824)
(1.13382 -0.0219684 0.0484565)
(1.13077 -0.0205671 0.0449775)
(1.12624 -0.0192409 0.0415902)
(1.12059 -0.017993 0.0383224)
(1.11407 -0.0168332 0.0352087)
(1.10693 -0.015761 0.0322849)
(1.09936 -0.0147637 0.0295698)
(1.09148 -0.0138365 0.027057)
(1.08343 -0.0129887 0.0247331)
(1.07528 -0.0122232 0.0225961)
(1.06716 -0.0115239 0.020647)
(1.05915 -0.0108644 0.0188747)
(1.05132 -0.0102263 0.0172565)
(1.0437 -0.00961509 0.0157708)
(1.03629 -0.00906015 0.0144043)
(1.0291 -0.0085953 0.0131548)
(1.02216 -0.00823198 0.0120276)
(1.01553 -0.00794149 0.0110172)
(1.00926 -0.00766712 0.0100953)
(1.00341 -0.00735755 0.00921734)
(0.998018 -0.00698794 0.0083403)
(0.993117 -0.00656254 0.00743642)
(0.988731 -0.00610476 0.00649954)
(1.00076 -0.0221247 0.0239856)
(1.03357 -0.0446482 0.0499148)
(1.06519 -0.051275 0.0594479)
(1.08469 -0.0518602 0.0622728)
(1.09167 -0.0512669 0.0631769)
(1.09056 -0.0500958 0.0628587)
(1.08494 -0.0479684 0.0611005)
(1.07629 -0.0449479 0.0580823)
(1.06503 -0.0414763 0.0543064)
(1.05152 -0.0379649 0.0502302)
(1.03634 -0.0346265 0.046122)
(1.02015 -0.0315238 0.0421043)
(1.00347 -0.0286656 0.0382381)
(0.986704 -0.0260567 0.0345711)
(0.970123 -0.0237003 0.0311459)
(0.953925 -0.021587 0.0279868)
(0.938257 -0.0196917 0.0250882)
(0.9232 -0.0179851 0.0224303)
(0.908785 -0.0164529 0.0200093)
(0.895047 -0.0150925 0.0178321)
(0.882035 -0.0138883 0.0158888)
(0.869783 -0.0128051 0.0141522)
(0.858284 -0.0118094 0.0125877)
(0.847497 -0.0108913 0.0111604)
(0.837358 -0.0100619 0.00985379)
(0.827789 -0.00934483 0.00867659)
(0.818759 -0.00877367 0.00763909)
(0.810319 -0.00834495 0.00671788)
(0.802558 -0.00800353 0.00586883)
(0.795561 -0.00768367 0.00504429)
(0.789391 -0.00732847 0.00421307)
(0.784075 -0.00690391 0.00337323)
(0.779597 -0.0064043 0.00254716)
(0.96419 -0.015573 0.0239731)
(0.952755 -0.0296566 0.0479432)
(0.932823 -0.0322044 0.0554731)
(0.895067 -0.0304251 0.0565651)
(0.846705 -0.0279037 0.055216)
(0.796803 -0.0251315 0.0517242)
(0.749627 -0.0219796 0.0463065)
(0.705948 -0.0186369 0.0398391)
(0.6656 -0.0154776 0.0332872)
(0.628676 -0.0127579 0.0272791)
(0.595441 -0.0105428 0.0220973)
(0.565983 -0.00878263 0.0178079)
(0.540116 -0.00739397 0.0143573)
(0.517476 -0.00629825 0.0116267)
(0.497642 -0.00543169 0.00947117)
(0.480206 -0.00474134 0.00775258)
(0.464811 -0.0041798 0.00636012)
(0.451157 -0.00371051 0.00521662)
(0.438999 -0.00331471 0.00427263)
(0.428129 -0.00298413 0.00349232)
(0.418369 -0.00270721 0.00284309)
(0.409563 -0.00246723 0.00229356)
(0.401592 -0.00225059 0.00181304)
(0.394362 -0.0020525 0.00137627)
(0.387808 -0.00187771 0.000971303)
(0.38186 -0.00174116 0.000590282)
(0.37646 -0.00166176 0.000250602)
(0.371585 -0.00163212 -6.43294e-05)
(0.367207 -0.00162131 -0.000337819)
(0.363287 -0.00160203 -0.000553061)
(0.359815 -0.00155279 -0.00070494)
(0.356786 -0.00146306 -0.0007949)
(0.354193 -0.00133466 -0.000828665)
(0.9636 0.0154057 0.0123734)
(0.9456 0.0290898 0.0294144)
(0.925416 0.0312039 0.0380775)
(0.894959 0.0291088 0.0413825)
(0.858393 0.0265689 0.0421426)
(0.821538 0.0241324 0.0412573)
(0.787011 0.0215003 0.0388791)
(0.754888 0.0186441 0.0353248)
(0.724585 0.0158137 0.0311367)
(0.695886 0.013246 0.0268189)
(0.668964 0.0110384 0.0227004)
(0.644067 0.00918329 0.0189522)
(0.621325 0.00763677 0.0156478)
(0.600725 0.00635784 0.0128043)
(0.58216 0.00531546 0.0103994)
(0.565477 0.00447871 0.00838776)
(0.550505 0.00380952 0.00671756)
(0.537072 0.00327171 0.0053375)
(0.525017 0.00284195 0.00419756)
(0.51418 0.00250442 0.00325367)
(0.504409 0.00223964 0.00247441)
(0.495563 0.00202396 0.0018388)
(0.487528 0.00183667 0.00131952)
(0.480214 0.0016668 0.000874518)
(0.473543 0.00151953 0.000448264)
(0.467483 0.00141294 1.37216e-05)
(0.461972 0.00133974 -0.000457406)
(0.456918 0.00130947 -0.00097378)
(0.452287 0.00131301 -0.00151799)
(0.448061 0.00132772 -0.0020415)
(0.444241 0.00133066 -0.00249072)
(0.440847 0.00130546 -0.00282558)
(0.437897 0.00124614 -0.0030262)
(1.00032 0.0219351 0.0123469)
(1.02704 0.0446414 0.0306074)
(1.05807 0.0510746 0.0409032)
(1.08406 0.0511792 0.0460412)
(1.1025 0.0502548 0.0488479)
(1.11521 0.0492205 0.0504285)
(1.12439 0.0476025 0.0508671)
(1.13102 0.0452214 0.0501821)
(1.13524 0.042354 0.0486156)
(1.13702 0.0393622 0.0464996)
(1.13657 0.0364585 0.044096)
(1.13425 0.0337067 0.0415562)
(1.13041 0.0311077 0.0389603)
(1.12539 0.0286597 0.0363627)
(1.11945 0.0263733 0.0338136)
(1.11281 0.0242652 0.0313528)
(1.10567 0.022338 0.0289998)
(1.09817 0.0205759 0.0267643)
(1.09042 0.0189666 0.0246608)
(1.08252 0.0175061 0.0226968)
(1.0746 0.0161847 0.0208577)
(1.06673 0.014989 0.0191237)
(1.05899 0.0139023 0.0174912)
(1.05142 0.0128931 0.0159651)
(1.04402 0.0119514 0.014557)
(1.03678 0.011117 0.0132883)
(1.02974 0.0103923 0.0121491)
(1.02292 0.00978694 0.0110843)
(1.01638 0.00929262 0.0100143)
(1.01018 0.00887384 0.00886524)
(1.00439 0.00848557 0.00759408)
(0.999068 0.00808547 0.0062014)
(0.994287 0.00764386 0.00472859)
(0.99988 0.00884294 0.0122014)
(1.02077 0.0208648 0.0304927)
(1.05144 0.025865 0.0407245)
(1.08396 0.02689 0.0456522)
(1.11349 0.0268919 0.0482953)
(1.1392 0.0269073 0.0499621)
(1.162 0.0267429 0.0507453)
(1.18261 0.0261249 0.0505515)
(1.20114 0.0251009 0.0495186)
(1.21741 0.0238913 0.0479395)
(1.23137 0.0226714 0.0460804)
(1.24314 0.0215088 0.0441021)
(1.25293 0.0204047 0.0420779)
(1.26097 0.0193468 0.0400389)
(1.26747 0.0183349 0.0380085)
(1.2726 0.0173776 0.0360151)
(1.27654 0.016478 0.0340889)
(1.27945 0.0156371 0.0322528)
(1.28145 0.0148585 0.0305183)
(1.28264 0.0141401 0.0288836)
(1.28314 0.0134716 0.0273317)
(1.28305 0.0128385 0.0258382)
(1.28245 0.0122258 0.0243924)
(1.28144 0.0116287 0.0230058)
(1.28011 0.0110649 0.0217015)
(1.27849 0.0105607 0.0205004)
(1.27663 0.0101247 0.0194028)
(1.27459 0.00974961 0.018379)
(1.2724 0.0094101 0.0173783)
(1.27013 0.00907042 0.0163458)
(1.26781 0.0087016 0.0152391)
(1.26551 0.00829584 0.0140366)
(1.26328 0.00786886 0.0127378)
(0.999942 0.00244407 0.0121399)
(1.01762 0.00617482 0.0304006)
(1.04525 0.00802289 0.0406127)
(1.07661 0.0085638 0.0454229)
(1.10671 0.00867428 0.0479132)
(1.13388 0.00877031 0.0494672)
(1.15853 0.00883627 0.0502005)
(1.18135 0.00876732 0.0499841)
(1.20256 0.00855334 0.048922)
(1.22198 0.00826008 0.0473071)
(1.23948 0.007951 0.0454251)
(1.25506 0.00765318 0.0434527)
(1.26888 0.00736662 0.0414677)
(1.2811 0.00708432 0.0394987)
(1.2919 0.00680433 0.0375631)
(1.3014 0.00653015 0.0356835)
(1.30975 0.00626615 0.0338869)
(1.31708 0.00601519 0.032195)
(1.32347 0.00577786 0.0306181)
(1.32902 0.0055521 0.0291525)
(1.33382 0.00533431 0.0277809)
(1.33792 0.00512115 0.0264781)
(1.34141 0.00491232 0.0252277)
(1.34435 0.00471047 0.0240317)
(1.34682 0.00451957 0.0229036)
(1.34888 0.00434399 0.0218576)
(1.35058 0.00418503 0.0208956)
(1.35197 0.00403941 0.0199974)
(1.3531 0.0039006 0.0191251)
(1.35398 0.00376121 0.0182363)
(1.35466 0.00361552 0.0172952)
(1.35513 0.00346119 0.0162813)
(1.35544 0.00329928 0.015191)
(0.999942 -0.00244407 0.0121399)
(1.01762 -0.00617482 0.0304006)
(1.04525 -0.00802289 0.0406127)
(1.07661 -0.0085638 0.0454229)
(1.10671 -0.00867428 0.0479132)
(1.13388 -0.00877031 0.0494672)
(1.15853 -0.00883627 0.0502005)
(1.18135 -0.00876732 0.0499841)
(1.20256 -0.00855334 0.048922)
(1.22198 -0.00826008 0.0473071)
(1.23948 -0.007951 0.0454251)
(1.25506 -0.00765318 0.0434527)
(1.26888 -0.00736662 0.0414677)
(1.2811 -0.00708432 0.0394987)
(1.2919 -0.00680433 0.0375631)
(1.3014 -0.00653015 0.0356835)
(1.30975 -0.00626615 0.0338869)
(1.31708 -0.00601519 0.032195)
(1.32347 -0.00577786 0.0306181)
(1.32902 -0.0055521 0.0291525)
(1.33382 -0.00533431 0.0277809)
(1.33792 -0.00512115 0.0264781)
(1.34141 -0.00491232 0.0252277)
(1.34435 -0.00471046 0.0240317)
(1.34682 -0.00451956 0.0229036)
(1.34888 -0.00434399 0.0218576)
(1.35058 -0.00418502 0.0208956)
(1.35197 -0.00403941 0.0199974)
(1.3531 -0.00390059 0.0191251)
(1.35398 -0.0037612 0.0182363)
(1.35466 -0.00361551 0.0172952)
(1.35513 -0.00346118 0.0162813)
(1.35544 -0.00329928 0.015191)
(0.99988 -0.00884294 0.0122014)
(1.02077 -0.0208648 0.0304927)
(1.05144 -0.025865 0.0407245)
(1.08396 -0.02689 0.0456522)
(1.11349 -0.0268919 0.0482953)
(1.1392 -0.0269073 0.0499621)
(1.162 -0.0267429 0.0507453)
(1.18261 -0.0261249 0.0505515)
(1.20114 -0.0251009 0.0495186)
(1.21741 -0.0238913 0.0479395)
(1.23137 -0.0226714 0.0460804)
(1.24314 -0.0215088 0.0441021)
(1.25293 -0.0204047 0.0420779)
(1.26097 -0.0193468 0.0400389)
(1.26747 -0.0183349 0.0380085)
(1.2726 -0.0173776 0.0360151)
(1.27654 -0.016478 0.0340889)
(1.27945 -0.0156371 0.0322528)
(1.28145 -0.0148585 0.0305183)
(1.28264 -0.0141401 0.0288836)
(1.28314 -0.0134716 0.0273317)
(1.28305 -0.0128385 0.0258382)
(1.28245 -0.0122258 0.0243924)
(1.28144 -0.0116287 0.0230058)
(1.28011 -0.0110649 0.0217015)
(1.27849 -0.0105607 0.0205004)
(1.27663 -0.0101247 0.0194028)
(1.27459 -0.00974961 0.018379)
(1.2724 -0.0094101 0.0173783)
(1.27013 -0.00907041 0.0163458)
(1.26781 -0.00870158 0.0152391)
(1.26551 -0.00829583 0.0140366)
(1.26328 -0.00786886 0.0127378)
(1.00032 -0.0219351 0.0123469)
(1.02704 -0.0446414 0.0306074)
(1.05807 -0.0510746 0.0409032)
(1.08406 -0.0511792 0.0460412)
(1.1025 -0.0502548 0.0488479)
(1.11521 -0.0492205 0.0504285)
(1.12439 -0.0476025 0.0508671)
(1.13102 -0.0452214 0.0501821)
(1.13524 -0.042354 0.0486156)
(1.13702 -0.0393622 0.0464996)
(1.13657 -0.0364585 0.044096)
(1.13425 -0.0337067 0.0415562)
(1.13041 -0.0311077 0.0389603)
(1.12539 -0.0286597 0.0363627)
(1.11945 -0.0263733 0.0338136)
(1.11281 -0.0242652 0.0313528)
(1.10567 -0.022338 0.0289998)
(1.09817 -0.0205759 0.0267643)
(1.09042 -0.0189666 0.0246608)
(1.08252 -0.0175061 0.0226968)
(1.0746 -0.0161847 0.0208577)
(1.06673 -0.014989 0.0191237)
(1.05899 -0.0139023 0.0174913)
(1.05142 -0.012893 0.0159652)
(1.04402 -0.0119514 0.014557)
(1.03678 -0.011117 0.0132883)
(1.02974 -0.0103923 0.0121491)
(1.02292 -0.00978693 0.0110843)
(1.01638 -0.00929261 0.0100143)
(1.01018 -0.00887383 0.00886525)
(1.00439 -0.00848556 0.00759408)
(0.999068 -0.00808547 0.0062014)
(0.994287 -0.00764386 0.00472858)
(0.9636 -0.0154057 0.0123734)
(0.9456 -0.0290898 0.0294144)
(0.925416 -0.0312039 0.0380775)
(0.894959 -0.0291088 0.0413825)
(0.858393 -0.0265689 0.0421426)
(0.821538 -0.0241324 0.0412573)
(0.787011 -0.0215003 0.0388791)
(0.754888 -0.0186441 0.0353248)
(0.724585 -0.0158137 0.0311367)
(0.695886 -0.013246 0.0268189)
(0.668964 -0.0110384 0.0227004)
(0.644067 -0.00918329 0.0189522)
(0.621325 -0.00763677 0.0156478)
(0.600725 -0.00635784 0.0128043)
(0.58216 -0.00531546 0.0103994)
(0.565477 -0.00447871 0.00838776)
(0.550505 -0.00380952 0.00671756)
(0.537072 -0.00327171 0.0053375)
(0.525017 -0.00284195 0.00419756)
(0.51418 -0.00250442 0.00325367)
(0.504409 -0.00223964 0.00247441)
(0.495563 -0.00202396 0.0018388)
(0.487528 -0.00183667 0.00131952)
(0.480214 -0.0016668 0.000874517)
(0.473543 -0.00151952 0.000448264)
(0.467483 -0.00141294 1.37216e-05)
(0.461972 -0.00133974 -0.000457405)
(0.456918 -0.00130947 -0.000973776)
(0.452287 -0.00131301 -0.00151799)
(0.448061 -0.00132772 -0.00204149)
(0.444241 -0.00133066 -0.00249071)
(0.440847 -0.00130546 -0.00282557)
(0.437897 -0.00124614 -0.00302619)
(0.963589 0.0154403 0.00752017)
(0.941248 0.0292934 0.0197212)
(0.916565 0.0314021 0.0277452)
(0.883705 0.0291681 0.0319161)
(0.847071 0.0264699 0.0335849)
(0.811678 0.0239621 0.0337071)
(0.779557 0.0213462 0.0326452)
(0.750545 0.0185372 0.0305888)
(0.723876 0.0157383 0.0278181)
(0.699072 0.0131742 0.0246798)
(0.676023 0.0109481 0.0214673)
(0.654767 0.00905899 0.0183663)
(0.635323 0.00746572 0.0154843)
(0.617642 0.0061286 0.0128862)
(0.601628 0.00502037 0.0105988)
(0.587159 0.00411773 0.00861176)
(0.574109 0.00339149 0.00689768)
(0.562354 0.00280939 0.00543039)
(0.551769 0.00234592 0.00418454)
(0.542229 0.00198326 0.00313492)
(0.533608 0.00170378 0.00225971)
(0.52579 0.00148538 0.00153604)
(0.518683 0.0013043 0.000936501)
(0.512196 0.0011472 0.000423419)
(0.506286 0.00102098 -4.25182e-05)
(0.500913 0.000912063 -0.0005106)
(0.495994 0.000828338 -0.00104911)
(0.491468 0.00077601 -0.00166414)
(0.487283 0.00075122 -0.00233242)
(0.483399 0.000744157 -0.0030104)
(0.479805 0.000743194 -0.00364146)
(0.476515 0.000736556 -0.00416746)
(0.473554 0.000715535 -0.0045423)
(1.00038 0.0218759 0.00754059)
(1.02303 0.0446805 0.0204597)
(1.0497 0.0511175 0.0296154)
(1.07312 0.0510102 0.0352962)
(1.09106 0.0497699 0.0386966)
(1.10471 0.0484984 0.0407685)
(1.11577 0.0467701 0.0418785)
(1.12507 0.0443442 0.0421184)
(1.13272 0.0414358 0.0416004)
(1.13864 0.038395 0.0405187)
(1.14286 0.0354509 0.0390754)
(1.14556 0.0326781 0.0374184)
(1.14696 0.030074 0.035631)
(1.14727 0.0276275 0.0337612)
(1.14665 0.0253444 0.031855)
(1.14528 0.0232427 0.029956)
(1.14328 0.0213326 0.0280925)
(1.14075 0.0196004 0.0262848)
(1.13778 0.0180243 0.0245466)
(1.13445 0.0165906 0.0228769)
(1.13086 0.015286 0.0212725)
(1.12707 0.0141091 0.0197341)
(1.12315 0.013057 0.018261)
(1.11914 0.0121003 0.0168597)
(1.11505 0.0112342 0.0155538)
(1.11092 0.0104427 0.0143602)
(1.10678 0.00972505 0.0132667)
(1.10266 0.0090874 0.0122344)
(1.09861 0.00852966 0.0111943)
(1.09463 0.00803793 0.0100704)
(1.09076 0.00758784 0.00879921)
(1.08702 0.00715073 0.00734691)
(1.08343 0.00670065 0.0057271)
(0.999942 0.00878086 0.00749208)
(1.01674 0.0207618 0.0204799)
(1.04299 0.0257222 0.0297261)
(1.07295 0.0265999 0.0354103)
(1.10203 0.0264148 0.0388071)
(1.1287 0.0262828 0.0409661)
(1.15325 0.0260371 0.0423077)
(1.17624 0.0253647 0.042904)
(1.1978 0.0242721 0.0428171)
(1.21775 0.0229743 0.0422041)
(1.23593 0.0216661 0.0412567)
(1.25231 0.0204323 0.0401262)
(1.26701 0.0192789 0.0388975)
(1.28017 0.0181895 0.0376042)
(1.29192 0.0171584 0.0362608)
(1.30239 0.0161945 0.0348856)
(1.3117 0.015308 0.0335061)
(1.31997 0.0145008 0.0321534)
(1.32729 0.0137681 0.0308497)
(1.33375 0.0130993 0.0295977)
(1.33942 0.0124804 0.028383)
(1.34439 0.0119013 0.0271871)
(1.34871 0.0113554 0.0260024)
(1.35246 0.0108396 0.024837)
(1.3557 0.0103609 0.0237125)
(1.35851 0.00992212 0.0226521)
(1.36092 0.00952388 0.0216627)
(1.36299 0.00916113 0.0207286)
(1.36474 0.00881953 0.019812)
(1.36618 0.00847993 0.0188654)
(1.36734 0.00812699 0.0178428)
(1.36823 0.00775648 0.0167077)
(1.36886 0.00736949 0.0154385)
(1.00001 0.00242212 0.00746251)
(1.01359 0.00613015 0.020442)
(1.03674 0.00796734 0.0297179)
(1.0655 0.00846767 0.0353834)
(1.09517 0.00852784 0.03873)
(1.12333 0.00858199 0.0408382)
(1.14974 0.00862299 0.0421506)
(1.17489 0.00853458 0.0427342)
(1.19903 0.00829447 0.0426371)
(1.22198 0.00796777 0.0420131)
(1.24349 0.0076254 0.0410626)
(1.26346 0.00730036 0.0399471)
(1.28192 0.00699456 0.0387599)
(1.29898 0.00670043 0.0375398)
(1.31475 0.00641448 0.0362978)
(1.32932 0.00613959 0.0350426)
(1.34277 0.00588063 0.0337926)
(1.35521 0.00564005 0.0325747)
(1.36671 0.00541701 0.031415)
(1.37737 0.00520845 0.0303249)
(1.38723 0.00501041 0.0292957)
(1.39636 0.00482064 0.0283056)
(1.4048 0.00463953 0.0273328)