/*--------------------------------*- C++ -*----------------------------------*\
| =========                 |                                                 |
| \\      /  F ield         | OpenFOAM: The Open Source CFD Toolbox           |
|  \\    /   O peration     | Version:  2412                                  |
|   \\  /    A nd           | Website:  www.openfoam.com                      |
|    \\/     M anipulation  |                                                 |
\*---------------------------------------------------------------------------*/
FoamFile
{
    version     2.0;
    format      ascii;
    arch        "LSB;label=32;scalar=64";
    class       volScalarField;
    location    "6.00647367";
    object      p;
}
// * * * * * * * * * * * * * * * * * * * * * * * * * * * * * * * * * * * * * //

dimensions      [0 2 -2 0 0 0 0];

internalField   nonuniform List<scalar> 
16000
(
1.63831
1.54356
1.46722
1.41627
1.3775
1.34152
1.30637
1.27281
1.24147
1.21227
1.18489
1.15899
1.13435
1.11081
1.08827
1.06663
1.04584
1.02582
1.0065
0.987835
0.969756
0.952209
0.935142
0.91851
0.90227
0.886383
0.870817
0.855542
0.840531
0.825762
0.811214
0.79687
0.782713
1.58645
1.51851
1.45564
1.4085
1.37149
1.3376
1.3043
1.27184
1.24097
1.21191
1.18451
1.15853
1.13379
1.11018
1.08758
1.06594
1.04516
1.02517
1.0059
0.987288
0.96926
0.951763
0.934744
0.918154
0.901953
0.886102
0.870567
0.855319
0.840332
0.825583
0.811053
0.796724
0.782581
1.56514
1.50722
1.45176
1.4077
1.37158
1.33829
1.30558
1.27347
1.24259
1.21333
1.18567
1.15945
1.13452
1.11074
1.08803
1.06628
1.04542
1.02537
1.00605
0.987386
0.969322
0.951795
0.934751
0.918141
0.901924
0.886059
0.870514
0.855258
0.840265
0.825512
0.810979
0.796647
0.782502
1.55643
1.50171
1.4493
1.40683
1.37119
1.33811
1.30567
1.2738
1.24305
1.21378
1.18607
1.15979
1.1348
1.11097
1.08821
1.06643
1.04554
1.02546
1.00612
0.987452
0.969378
0.951842
0.934791
0.918175
0.901951
0.886081
0.870531
0.85527
0.840272
0.825514
0.810976
0.79664
0.782491
1.55643
1.50171
1.4493
1.40683
1.37119
1.33811
1.30567
1.2738
1.24305
1.21378
1.18607
1.15979
1.1348
1.11097
1.08821
1.06643
1.04554
1.02546
1.00612
0.987452
0.969378
0.951842
0.934791
0.918175
0.901951
0.886081
0.870531
0.85527
0.840272
0.825514
0.810976
0.79664
0.782491
1.56514
1.50722
1.45176
1.4077
1.37158
1.33829
1.30558
1.27347
1.24259
1.21333
1.18567
1.15945
1.13452
1.11074
1.08803
1.06628
1.04542
1.02537
1.00605
0.987386
0.969322
0.951795
0.934751
0.918141
0.901924
0.886059
0.870514
0.855258
0.840265
0.825512
0.810979
0.796647
0.782502
1.58645
1.51851
1.45564
1.4085
1.37149
1.3376
1.3043
1.27184
1.24097
1.21191
1.18451
1.15853
1.13379
1.11018
1.08758
1.06594
1.04516
1.02517
1.0059
0.987288
0.96926
0.951763
0.934744
0.918154
0.901953
0.886102
0.870567
0.855319
0.840332
0.825583
0.811053
0.796724
0.782581
1.63831
1.54356
1.46722
1.41627
1.3775
1.34152
1.30637
1.27281
1.24147
1.21227
1.18489
1.15899
1.13435
1.11081
1.08827
1.06663
1.04584
1.02582
1.0065
0.987835
0.969756
0.952209
0.935142
0.91851
0.90227
0.886383
0.870817
0.855542
0.840531
0.825762
0.811214
0.79687
0.782713
1.58435
1.51645
1.45377
1.40701
1.37042
1.33688
1.30383
1.2716
1.24093
1.21205
1.18479
1.15892
1.13426
1.11069
1.08813
1.0665
1.04572
1.02572
1.00643
0.98778
0.969718
0.952184
0.935128
0.918503
0.902267
0.886384
0.87082
0.855545
0.840535
0.825765
0.811217
0.796872
0.782714
1.53321
1.49273
1.44499
1.40257
1.36678
1.33418
1.30232
1.27093
1.24061
1.2118
1.18454
1.15867
1.13403
1.11049
1.08795
1.06634
1.04558
1.0256
1.00633
0.987698
0.969651
0.952132
0.935087
0.918472
0.902245
0.886368
0.870809
0.855539
0.840531
0.825764
0.811217
0.796873
0.782717
1.51206
1.48149
1.44168
1.40263
1.36755
1.3352
1.30382
1.27287
1.24269
1.21377
1.18628
1.16018
1.13533
1.1116
1.08891
1.06716
1.04628
1.0262
1.00684
0.988137
0.970029
0.952457
0.935368
0.918714
0.902453
0.886546
0.87096
0.855666
0.840638
0.825852
0.811289
0.796931
0.782763
1.50339
1.47596
1.43937
1.40209
1.36752
1.33528
1.30409
1.27338
1.24336
1.21445
1.1869
1.16072
1.13581
1.11203
1.08928
1.06749
1.04657
1.02646
1.00707
0.988346
0.97022
0.952633
0.935531
0.918865
0.902593
0.886675
0.871079
0.855775
0.840737
0.825942
0.81137
0.797003
0.782826
1.50339
1.47596
1.43937
1.40209
1.36752
1.33528
1.30409
1.27338
1.24336
1.21445
1.1869
1.16072
1.13581
1.11203
1.08928
1.06749
1.04657
1.02646
1.00707
0.988346
0.97022
0.952633
0.935531
0.918865
0.902593
0.886675
0.871079
0.855775
0.840737
0.825942
0.81137
0.797003
0.782826
1.51206
1.48149
1.44168
1.40263
1.36755
1.3352
1.30382
1.27287
1.24269
1.21377
1.18628
1.16018
1.13533
1.1116
1.08891
1.06716
1.04628
1.0262
1.00684
0.988137
0.970029
0.952457
0.935368
0.918714
0.902453
0.886546
0.87096
0.855666
0.840638
0.825852
0.811289
0.796931
0.782763
1.53321
1.49273
1.44499
1.40257
1.36678
1.33418
1.30232
1.27093
1.24061
1.2118
1.18454
1.15867
1.13403
1.11049
1.08795
1.06634
1.04558
1.0256
1.00633
0.987698
0.969651
0.952132
0.935087
0.918472
0.902245
0.886368
0.870809
0.855539
0.840531
0.825764
0.811217
0.796873
0.782717
1.58435
1.51645
1.45377
1.40701
1.37042
1.33688
1.30383
1.2716
1.24093
1.21205
1.18479
1.15892
1.13426
1.11069
1.08813
1.0665
1.04572
1.02572
1.00643
0.98778
0.969718
0.952184
0.935128
0.918503
0.902267
0.886384
0.87082
0.855545
0.840535
0.825765
0.811217
0.796872
0.782714
1.55786
1.50038
1.44578
1.40296
1.36816
1.33597
1.30413
1.27272
1.24245
1.21368
1.18639
1.16043
1.13566
1.11198
1.08931
1.06758
1.04671
1.02662
1.00725
0.988522
0.970389
0.952789
0.935672
0.918992
0.902706
0.886778
0.871173
0.855863
0.84082
0.826022
0.811448
0.79708
0.782903
1.50686
1.47671
1.43759
1.3994
1.3652
1.3336
1.30281
1.27232
1.24254
1.21394
1.1867
1.16077
1.13603
1.11236
1.0897
1.06795
1.04705
1.02694
1.00755
0.988802
0.970648
0.953029
0.935893
0.919195
0.902893
0.886949
0.87133
0.856007
0.840952
0.826142
0.811558
0.797182
0.782996
1.48606
1.46581
1.43487
1.40019
1.36659
1.33502
1.30461
1.27464
1.24517
1.21657
1.18916
1.16302
1.13807
1.11421
1.09136
1.06943
1.04836
1.02809
1.00855
0.98968
0.971416
0.9537
0.93648
0.919707
0.903339
0.887337
0.871667
0.856299
0.841205
0.826362
0.811748
0.797346
0.783138
1.47752
1.4604
1.43272
1.39988
1.36677
1.33524
1.30497
1.27527
1.246
1.21747
1.19002
1.16381
1.1388
1.11489
1.09198
1.06999
1.04887
1.02856
1.00897
0.990067
0.971768
0.954022
0.936774
0.919977
0.903586
0.887564
0.871875
0.856489
0.84138
0.826522
0.811895
0.79748
0.78326
1.47752
1.4604
1.43272
1.39988
1.36677
1.33524
1.30497
1.27527
1.246
1.21747
1.19002
1.16381
1.1388
1.11489
1.09198
1.06999
1.04887
1.02856
1.00897
0.990067
0.971768
0.954022
0.936774
0.919977
0.903586
0.887564
0.871875
0.856489
0.84138
0.826522
0.811895
0.79748
0.78326
1.48606
1.46581
1.43487
1.40019
1.36659
1.33502
1.30461
1.27464
1.24517
1.21657
1.18916
1.16302
1.13807
1.11421
1.09136
1.06943
1.04836
1.02809
1.00855
0.98968
0.971416
0.9537
0.93648
0.919707
0.903339
0.887337
0.871667
0.856299
0.841205
0.826362
0.811748
0.797346
0.783138
1.50686
1.47671
1.43759
1.3994
1.3652
1.3336
1.30281
1.27232
1.24254
1.21394
1.1867
1.16077
1.13603
1.11236
1.0897
1.06795
1.04705
1.02694
1.00755
0.988802
0.970648
0.953029
0.935893
0.919195
0.902893
0.886949
0.87133
0.856007
0.840952
0.826142
0.811558
0.797182
0.782996
1.55786
1.50038
1.44578
1.40296
1.36816
1.33597
1.30413
1.27272
1.24245
1.21368
1.18639
1.16043
1.13566
1.11198
1.08931
1.06758
1.04671
1.02662
1.00725
0.988522
0.970389
0.952789
0.935672
0.918992
0.902706
0.886778
0.871173
0.855863
0.84082
0.826022
0.811448
0.79708
0.782903
1.5413
1.48791
1.43782
1.39816
1.36514
1.33414
1.30327
1.27268
1.24298
1.21455
1.18744
1.16156
1.13682
1.11313
1.09043
1.06865
1.04773
1.0276
1.00817
0.989398
0.971215
0.953568
0.936404
0.919678
0.903347
0.887376
0.871731
0.856385
0.841309
0.826477
0.811872
0.797475
0.78327
1.49029
1.46415
1.42969
1.39485
1.3625
1.33201
1.30212
1.27245
1.24328
1.21506
1.18801
1.16217
1.13745
1.11377
1.09107
1.06928
1.04833
1.02815
1.00869
0.989882
0.971663
0.953981
0.936784
0.920027
0.903668
0.887671
0.872001
0.85663
0.84153
0.826679
0.812056
0.797643
0.783424
1.46962
1.45336
1.42713
1.39589
1.36415
1.33362
1.30406
1.27493
1.24613
1.21797
1.19079
1.16474
1.13982
1.11596
1.09306
1.07106
1.04992
1.02956
1.00993
0.990976
0.972624
0.954824
0.937524
0.920676
0.904237
0.888169
0.872438
0.857013
0.841866
0.826974
0.812316
0.797873
0.783628
1.46116
1.44801
1.42505
1.39567
1.36442
1.3339
1.30448
1.27562
1.24706
1.21899
1.19179
1.16567
1.14068
1.11675
1.0938
1.07174
1.05054
1.03012
1.01044
0.991439
0.973046
0.955208
0.937873
0.920994
0.904527
0.888435
0.872682
0.857238
0.842075
0.827168
0.812496
0.79804
0.783783
1.46116
1.44801
1.42505
1.39567
1.36442
1.3339
1.30448
1.27562
1.24706
1.21899
1.19179
1.16567
1.14068
1.11675
1.0938
1.07174
1.05054
1.03012
1.01044
0.991439
0.973046
0.955208
0.937873
0.920994
0.904527
0.888435
0.872682
0.857238
0.842075
0.827168
0.812496
0.79804
0.783783
1.46962
1.45336
1.42713
1.39589
1.36415
1.33362
1.30406
1.27493
1.24613
1.21797
1.19079
1.16474
1.13982
1.11596
1.09306
1.07106
1.04992
1.02956
1.00993
0.990976
0.972624
0.954824
0.937524
0.920676
0.904237
0.888169
0.872438
0.857013
0.841866
0.826974
0.812316
0.797873
0.783628
1.49029
1.46415
1.42969
1.39485
1.3625
1.33201
1.30212
1.27245
1.24328
1.21506
1.18801
1.16217
1.13745
1.11377
1.09107
1.06928
1.04833
1.02815
1.00869
0.989882
0.971663
0.953981
0.936784
0.920027
0.903668
0.887671
0.872001
0.85663
0.84153
0.826679
0.812056
0.797643
0.783424
1.5413
1.48791
1.43782
1.39816
1.36514
1.33414
1.30327
1.27268
1.24298
1.21455
1.18744
1.16156
1.13682
1.11313
1.09043
1.06865
1.04773
1.0276
1.00817
0.989398
0.971215
0.953568
0.936404
0.919678
0.903347
0.887376
0.871731
0.856385
0.841309
0.826477
0.811872
0.797475
0.78327
1.52981
1.47821
1.43062
1.39332
1.36198
1.3321
1.30209
1.27221
1.24308
1.21504
1.18818
1.16245
1.13779
1.11414
1.09146
1.06968
1.04875
1.02859
1.00914
0.99033
0.972112
0.954426
0.937222
0.920455
0.904085
0.888076
0.872393
0.857003
0.841885
0.827017
0.812379
0.797951
0.783718
1.47874
1.45433
1.42239
1.38998
1.35941
1.33007
1.30101
1.27202
1.24343
1.21563
1.18886
1.16317
1.13854
1.11491
1.09223
1.07043
1.04946
1.02926
1.00977
0.990915
0.972652
0.954925
0.937683
0.92088
0.904476
0.888433
0.872718
0.857303
0.84216
0.827269
0.812609
0.798162
0.78391
1.4581
1.44354
1.41984
1.3911
1.36118
1.3318
1.30305
1.27459
1.24639
1.21868
1.19179
1.16591
1.14108
1.11726
1.09438
1.07238
1.05121
1.03081
1.01113
0.992122
0.973715
0.955859
0.938503
0.921599
0.905106
0.888986
0.873205
0.857732
0.84254
0.827605
0.812907
0.798427
0.784147
1.44966
1.4382
1.41777
1.39091
1.36149
1.33212
1.3035
1.27533
1.24737
1.21977
1.19287
1.16692
1.14202
1.11813
1.09519
1.07312
1.05188
1.03142
1.01169
0.992627
0.974174
0.956275
0.93888
0.921942
0.905418
0.88927
0.873466
0.857973
0.842764
0.827815
0.813103
0.798609
0.784318
1.44966
1.4382
1.41777
1.39091
1.36149
1.33212
1.3035
1.27533
1.24737
1.21977
1.19287
1.16692
1.14202
1.11813
1.09519
1.07312
1.05188
1.03142
1.01169
0.992627
0.974174
0.956275
0.93888
0.921942
0.905418
0.88927
0.873466
0.857973
0.842764
0.827815
0.813103
0.798609
0.784318
1.4581
1.44354
1.41984
1.3911
1.36118
1.3318
1.30305
1.27459
1.24639
1.21868
1.19179
1.16591
1.14108
1.11726
1.09438
1.07238
1.05121
1.03081
1.01113
0.992122
0.973715
0.955859
0.938503
0.921599
0.905106
0.888986
0.873205
0.857732
0.84254
0.827605
0.812907
0.798427
0.784147
1.47874
1.45433
1.42239
1.38998
1.35941
1.33007
1.30101
1.27202
1.24343
1.21563
1.18886
1.16317
1.13854
1.11491
1.09223
1.07043
1.04946
1.02926
1.00977
0.990915
0.972652
0.954925
0.937683
0.92088
0.904476
0.888433
0.872718
0.857303
0.84216
0.827269
0.812609
0.798162
0.78391
1.52981
1.47821
1.43062
1.39332
1.36198
1.3321
1.30209
1.27221
1.24308
1.21504
1.18818
1.16245
1.13779
1.11414
1.09146
1.06968
1.04875
1.02859
1.00914
0.99033
0.972112
0.954426
0.937222
0.920455
0.904085
0.888076
0.872393
0.857003
0.841885
0.827017
0.812379
0.797951
0.783718
1.52157
1.47087
1.42476
1.38909
1.35912
1.33022
1.30094
1.27163
1.24297
1.21528
1.18867
1.1631
1.13854
1.11496
1.09232
1.07056
1.04963
1.02946
1.01
0.991168
0.972923
0.955206
0.93797
0.92117
0.904765
0.88872
0.873001
0.857579
0.842432
0.827536
0.81287
0.798415
0.784157
1.47044
1.44689
1.4164
1.38566
1.35652
1.32821
1.29988
1.27146
1.24335
1.21592
1.18941
1.16389
1.13937
1.1158
1.09316
1.07138
1.05041
1.0302
1.01068
0.991803
0.97351
0.955749
0.938472
0.921633
0.905192
0.889111
0.873359
0.857908
0.842731
0.827808
0.813117
0.798641
0.784363
1.44977
1.43607
1.41382
1.38678
1.35833
1.33
1.30198
1.27409
1.24636
1.21905
1.19244
1.16674
1.14202
1.11826
1.09541
1.07342
1.05224
1.03182
1.01212
0.993071
0.974626
0.956729
0.93933
0.922384
0.905849
0.889688
0.873866
0.858354
0.843126
0.828157
0.813427
0.798917
0.784609
1.44134
1.43073
1.41176
1.38661
1.35867
1.33036
1.30246
1.27485
1.24738
1.22017
1.19356
1.1678
1.14301
1.11918
1.09626
1.0742
1.05296
1.03247
1.01271
0.993603
0.975107
0.957163
0.939723
0.922739
0.90617
0.88998
0.874134
0.858602
0.843356
0.828371
0.813627
0.799104
0.784784
1.44134
1.43073
1.41176
1.38661
1.35867
1.33036
1.30246
1.27485
1.24738
1.22017
1.19356
1.1678
1.14301
1.11918
1.09626
1.0742
1.05296
1.03247
1.01271
0.993603
0.975107
0.957163
0.939723
0.922739
0.90617
0.88998
0.874134
0.858602
0.843356
0.828371
0.813627
0.799104
0.784784
1.44977
1.43607
1.41382
1.38678
1.35833
1.33
1.30198
1.27409
1.24636
1.21905
1.19244
1.16674
1.14202
1.11826
1.09541
1.07342
1.05224
1.03182
1.01212
0.993071
0.974626
0.956729
0.93933
0.922384
0.905849
0.889688
0.873866
0.858354
0.843126
0.828157
0.813427
0.798917
0.784609
1.47044
1.44689
1.4164
1.38566
1.35652
1.32821
1.29988
1.27146
1.24335
1.21592
1.18941
1.16389
1.13937
1.1158
1.09316
1.07138
1.05041
1.0302
1.01068
0.991803
0.97351
0.955749
0.938472
0.921633
0.905192
0.889111
0.873359
0.857908
0.842731
0.827808
0.813117
0.798641
0.784363
1.52157
1.47087
1.42476
1.38909
1.35912
1.33022
1.30094
1.27163
1.24297
1.21528
1.18867
1.1631
1.13854
1.11496
1.09232
1.07056
1.04963
1.02946
1.01
0.991168
0.972923
0.955206
0.93797
0.92117
0.904765
0.88872
0.873001
0.857579
0.842432
0.827536
0.81287
0.798415
0.784157
1.51566
1.46547
1.42025
1.38568
1.35671
1.32859
1.29989
1.27104
1.24274
1.21535
1.18896
1.16354
1.13909
1.11557
1.09298
1.07125
1.05033
1.03016
1.01069
0.991851
0.973589
0.955851
0.938592
0.921766
0.905335
0.889263
0.873518
0.858072
0.8429
0.82798
0.81329
0.798814
0.784535
1.46448
1.44142
1.4118
1.38215
1.35405
1.32656
1.29884
1.27088
1.24313
1.21601
1.18973
1.16437
1.13996
1.11646
1.09386
1.0721
1.05114
1.03093
1.0114
0.992508
0.974195
0.956412
0.939109
0.922243
0.905773
0.889664
0.873885
0.858406
0.843204
0.828256
0.813541
0.799042
0.784743
1.44379
1.43057
1.40918
1.38325
1.35587
1.32838
1.30097
1.27354
1.24618
1.21918
1.19282
1.16729
1.14268
1.11898
1.09616
1.07419
1.05302
1.03259
1.01287
0.993805
0.975334
0.957409
0.939981
0.923004
0.906438
0.890246
0.874395
0.858855
0.843599
0.828605
0.813851
0.799318
0.784989
1.43535
1.42522
1.40711
1.38307
1.35622
1.32876
1.30147
1.27432
1.24722
1.22033
1.19397
1.16838
1.14369
1.11993
1.09705
1.075
1.05376
1.03326
1.01348
0.994351
0.975826
0.957852
0.94038
0.923364
0.906763
0.890541
0.874664
0.859103
0.843829
0.828819
0.814051
0.799505
0.785164
1.43535
1.42522
1.40711
1.38307
1.35622
1.32876
1.30147
1.27432
1.24722
1.22033
1.19397
1.16838
1.14369
1.11993
1.09705
1.075
1.05376
1.03326
1.01348
0.994351
0.975826
0.957852
0.94038
0.923364
0.906763
0.890541
0.874664
0.859103
0.843829
0.828819
0.814051
0.799505
0.785164
1.44379
1.43057
1.40918
1.38325
1.35587
1.32838
1.30097
1.27354
1.24618
1.21918
1.19282
1.16729
1.14268
1.11898
1.09616
1.07419
1.05302
1.03259
1.01287
0.993805
0.975334
0.957409
0.939981
0.923004
0.906438
0.890246
0.874395
0.858855
0.843599
0.828605
0.813851
0.799318
0.784989
1.46448
1.44142
1.4118
1.38215
1.35405
1.32656
1.29884
1.27088
1.24313
1.21601
1.18973
1.16437
1.13996
1.11646
1.09386
1.0721
1.05114
1.03093
1.0114
0.992508
0.974195
0.956412
0.939109
0.922243
0.905773
0.889664
0.873885
0.858406
0.843204
0.828256
0.813541
0.799042
0.784743
1.51566
1.46547
1.42025
1.38568
1.35671
1.32859
1.29989
1.27104
1.24274
1.21535
1.18896
1.16354
1.13909
1.11557
1.09298
1.07125
1.05033
1.03016
1.01069
0.991851
0.973589
0.955851
0.938592
0.921766
0.905335
0.889263
0.873518
0.858072
0.8429
0.82798
0.81329
0.798814
0.784535
1.51157
1.46169
1.417
1.38311
1.35484
1.32729
1.29902
1.27052
1.24249
1.21533
1.18911
1.16382
1.13945
1.116
1.09345
1.07175
1.05084
1.03069
1.01121
0.992366
0.974092
0.956341
0.939065
0.922222
0.905772
0.88968
0.873916
0.858452
0.843261
0.828322
0.813615
0.799123
0.784828
1.46036
1.43759
1.40849
1.37952
1.35212
1.32523
1.29796
1.27035
1.24289
1.21599
1.18989
1.16467
1.14035
1.11691
1.09435
1.07262
1.05167
1.03146
1.01193
0.993032
0.974707
0.956908
0.939588
0.922702
0.906213
0.890084
0.874284
0.858786
0.843565
0.828598
0.813866
0.79935
0.785035
1.43965
1.42671
1.40583
1.38059
1.35392
1.32705
1.30012
1.27304
1.24596
1.21919
1.19301
1.16762
1.1431
1.11947
1.09669
1.07474
1.05357
1.03315
1.01342
0.994341
0.975855
0.957911
0.940463
0.923466
0.906879
0.890665
0.874793
0.859233
0.843958
0.828945
0.814173
0.799623
0.785279
1.43119
1.42134
1.40376
1.38041
1.35427
1.32744
1.30063
1.27383
1.24701
1.22035
1.19418
1.16873
1.14414
1.12043
1.09759
1.07556
1.05432
1.03383
1.01404
0.994895
0.976352
0.958359
0.940865
0.923828
0.907205
0.890961
0.875063
0.859481
0.844188
0.829159
0.814373
0.79981
0.785453
1.43119
1.42134
1.40376
1.38041
1.35427
1.32744
1.30063
1.27383
1.24701
1.22035
1.19418
1.16873
1.14414
1.12043
1.09759
1.07556
1.05432
1.03383
1.01404
0.994895
0.976352
0.958359
0.940865
0.923828
0.907205
0.890961
0.875063
0.859481
0.844188
0.829159
0.814373
0.79981
0.785453
1.43965
1.42671
1.40583
1.38059
1.35392
1.32705
1.30012
1.27304
1.24596
1.21919
1.19301
1.16762
1.1431
1.11947
1.09669
1.07474
1.05357
1.03315
1.01342
0.994341
0.975855
0.957911
0.940463
0.923466
0.906879
0.890665
0.874793
0.859233
0.843958
0.828945
0.814173
0.799623
0.785279
1.46036
1.43759
1.40849
1.37952
1.35212
1.32523
1.29796
1.27035
1.24289
1.21599
1.18989
1.16467
1.14035
1.11691
1.09435
1.07262
1.05167
1.03146
1.01193
0.993032
0.974707
0.956908
0.939588
0.922702
0.906213
0.890084
0.874284
0.858786
0.843565
0.828598
0.813866
0.79935
0.785035
1.51157
1.46169
1.417
1.38311
1.35484
1.32729
1.29902
1.27052
1.24249
1.21533
1.18911
1.16382
1.13945
1.116
1.09345
1.07175
1.05084
1.03069
1.01121
0.992366
0.974092
0.956341
0.939065
0.922222
0.905772
0.88968
0.873916
0.858452
0.843261
0.828322
0.813615
0.799123
0.784828
1.50899
1.45927
1.41489
1.38141
1.35355
1.32637
1.29841
1.27013
1.24229
1.21528
1.18917
1.16397
1.13968
1.11627
1.09375
1.07207
1.05118
1.03103
1.01156
0.992708
0.974429
0.956669
0.939383
0.922528
0.906066
0.889962
0.874185
0.858708
0.843505
0.828554
0.813835
0.799331
0.785026
1.45776
1.43515
1.40634
1.37777
1.3508
1.32429
1.29734
1.26997
1.24269
1.21594
1.18997
1.16484
1.14058
1.1172
1.09466
1.07295
1.05202
1.03182
1.01229
0.99338
0.975047
0.957238
0.939907
0.92301
0.906507
0.890365
0.874552
0.859041
0.843808
0.828829
0.814085
0.799557
0.785231
1.43703
1.42425
1.40367
1.37881
1.35258
1.32611
1.29949
1.27266
1.24577
1.21915
1.1931
1.16781
1.14336
1.11977
1.09702
1.07509
1.05393
1.03351
1.01378
0.994694
0.976199
0.958244
0.940784
0.923773
0.907173
0.890946
0.87506
0.859487
0.844199
0.829174
0.81439
0.799829
0.785474
1.42857
1.41888
1.40158
1.37863
1.35293
1.3265
1.30001
1.27345
1.24682
1.22033
1.19428
1.16893
1.14441
1.12075
1.09793
1.07592
1.05469
1.0342
1.0144
0.995252
0.976699
0.958694
0.941188
0.924136
0.9075
0.891242
0.87533
0.859734
0.844428
0.829387
0.814589
0.800015
0.785648
1.42857
1.41888
1.40158
1.37863
1.35293
1.3265
1.30001
1.27345
1.24682
1.22033
1.19428
1.16893
1.14441
1.12075
1.09793
1.07592
1.05469
1.0342
1.0144
0.995252
0.976699
0.958694
0.941188
0.924136
0.9075
0.891242
0.87533
0.859734
0.844428
0.829387
0.814589
0.800015
0.785648
1.43703
1.42425
1.40367
1.37881
1.35258
1.32611
1.29949
1.27266
1.24577
1.21915
1.1931
1.16781
1.14336
1.11977
1.09702
1.07509
1.05393
1.03351
1.01378
0.994694
0.976199
0.958244
0.940784
0.923773
0.907173
0.890946
0.87506
0.859487
0.844199
0.829174
0.81439
0.799829
0.785474
1.45776
1.43515
1.40634
1.37777
1.3508
1.32429
1.29734
1.26997
1.24269
1.21594
1.18997
1.16484
1.14058
1.1172
1.09466
1.07295
1.05202
1.03182
1.01229
0.99338
0.975047
0.957238
0.939907
0.92301
0.906507
0.890365
0.874552
0.859041
0.843808
0.828829
0.814085
0.799557
0.785231
1.50899
1.45927
1.41489
1.38141
1.35355
1.32637
1.29841
1.27013
1.24229
1.21528
1.18917
1.16397
1.13968
1.11627
1.09375
1.07207
1.05118
1.03103
1.01156
0.992708
0.974429
0.956669
0.939383
0.922528
0.906066
0.889962
0.874185
0.858708
0.843505
0.828554
0.813835
0.799331
0.785026
1.50774
1.4581
1.41386
1.38056
1.3529
1.32591
1.29809
1.26993
1.24218
1.21524
1.1892
1.16405
1.13978
1.1164
1.0939
1.07223
1.05135
1.0312
1.01173
0.992879
0.974597
0.956833
0.939542
0.922681
0.906213
0.890103
0.87432
0.858836
0.843627
0.82867
0.813946
0.799436
0.785126
1.4565
1.43396
1.40529
1.37689
1.35013
1.32381
1.29701
1.26976
1.24257
1.21591
1.18999
1.16491
1.14069
1.11733
1.09482
1.07312
1.05219
1.03199
1.01246
0.993553
0.975217
0.957404
0.940067
0.923163
0.906655
0.890506
0.874687
0.85917
0.843929
0.828944
0.814194
0.799662
0.78533
1.43576
1.42305
1.4026
1.37793
1.3519
1.32563
1.29917
1.27246
1.24566
1.21913
1.19314
1.1679
1.14348
1.11991
1.09718
1.07526
1.0541
1.03369
1.01396
0.994869
0.97637
0.95841
0.940944
0.923927
0.90732
0.891086
0.875194
0.859614
0.84432
0.829288
0.814499
0.799932
0.785571
1.42729
1.41768
1.40051
1.37774
1.35224
1.32601
1.29969
1.27326
1.24672
1.2203
1.19432
1.16902
1.14454
1.1209
1.09809
1.07609
1.05487
1.03438
1.01458
0.995429
0.976872
0.958861
0.941349
0.924291
0.907647
0.891382
0.875464
0.859862
0.844549
0.829501
0.814698
0.800118
0.785745
1.42729
1.41768
1.40051
1.37774
1.35224
1.32601
1.29969
1.27326
1.24672
1.2203
1.19432
1.16902
1.14454
1.1209
1.09809
1.07609
1.05487
1.03438
1.01458
0.995429
0.976872
0.958861
0.941349
0.924291
0.907647
0.891382
0.875464
0.859862
0.844549
0.829501
0.814698
0.800118
0.785745
1.43576
1.42305
1.4026
1.37793
1.3519
1.32563
1.29917
1.27246
1.24566
1.21913
1.19314
1.1679
1.14348
1.11991
1.09718
1.07526
1.0541
1.03369
1.01396
0.994869
0.97637
0.95841
0.940944
0.923927
0.90732
0.891086
0.875194
0.859614
0.84432
0.829288
0.814499
0.799932
0.785571
1.4565
1.43396
1.40529
1.37689
1.35013
1.32381
1.29701
1.26976
1.24257
1.21591
1.18999
1.16491
1.14069
1.11733
1.09482
1.07312
1.05219
1.03199
1.01246
0.993553
0.975217
0.957404
0.940067
0.923163
0.906655
0.890506
0.874687
0.85917
0.843929
0.828944
0.814194
0.799662
0.78533
1.50774
1.4581
1.41386
1.38056
1.3529
1.32591
1.29809
1.26993
1.24218
1.21524
1.1892
1.16405
1.13978
1.1164
1.0939
1.07223
1.05135
1.0312
1.01173
0.992879
0.974597
0.956833
0.939542
0.922681
0.906213
0.890103
0.87432
0.858836
0.843627
0.82867
0.813946
0.799436
0.785126
1.50774
1.4581
1.41386
1.38056
1.3529
1.32591
1.29809
1.26993
1.24218
1.21524
1.1892
1.16405
1.13978
1.1164
1.0939
1.07223
1.05135
1.0312
1.01173
0.992879
0.974597
0.956833
0.939542
0.922681
0.906213
0.890103
0.87432
0.858836
0.843627
0.82867
0.813946
0.799436
0.785126
1.4565
1.43396
1.40529
1.37689
1.35013
1.32381
1.29701
1.26976
1.24257
1.21591
1.18999
1.16491
1.14069
1.11733
1.09482
1.07312
1.05219
1.03199
1.01246
0.993553
0.975217
0.957404
0.940067
0.923163
0.906655
0.890506
0.874687
0.85917
0.843929
0.828944
0.814194
0.799662
0.78533
1.43576
1.42305
1.4026
1.37793
1.3519
1.32563
1.29917
1.27246
1.24566
1.21913
1.19314
1.1679
1.14348
1.11991
1.09718
1.07526
1.0541
1.03369
1.01396
0.994869
0.97637
0.95841
0.940944
0.923927
0.90732
0.891086
0.875194
0.859614
0.84432
0.829288
0.814499
0.799932
0.785571
1.42729
1.41768
1.40051
1.37774
1.35224
1.32601
1.29969
1.27326
1.24672
1.2203
1.19432
1.16902
1.14454
1.1209
1.09809
1.07609
1.05487
1.03438
1.01458
0.995429
0.976872
0.958861
0.941349
0.924291
0.907647
0.891382
0.875464
0.859862
0.844549
0.829501
0.814698
0.800118
0.785745
1.42729
1.41768
1.40051
1.37774
1.35224
1.32601
1.29969
1.27326
1.24672
1.2203
1.19432
1.16902
1.14454
1.1209
1.09809
1.07609
1.05487
1.03438
1.01458
0.995429
0.976872
0.958861
0.941349
0.924291
0.907647
0.891382
0.875464
0.859862
0.844549
0.829501
0.814698
0.800118
0.785745
1.43576
1.42305
1.4026
1.37793
1.3519
1.32563
1.29917
1.27246
1.24566
1.21913
1.19314
1.1679
1.14348
1.11991
1.09718
1.07526
1.0541
1.03369
1.01396
0.994869
0.97637
0.95841
0.940944
0.923927
0.90732
0.891086
0.875194
0.859614
0.84432
0.829288
0.814499
0.799932
0.785571
1.4565
1.43396
1.40529
1.37689
1.35013
1.32381
1.29701
1.26976
1.24257
1.21591
1.18999
1.16491
1.14069
1.11733
1.09482
1.07312
1.05219
1.03199
1.01246
0.993553
0.975217
0.957404
0.940067
0.923163
0.906655
0.890506
0.874687
0.85917
0.843929
0.828944
0.814194
0.799662
0.78533
1.50774
1.4581
1.41386
1.38056
1.3529
1.32591
1.29809
1.26993
1.24218
1.21524
1.1892
1.16405
1.13978
1.1164
1.0939
1.07223
1.05135
1.0312
1.01173
0.992879
0.974597
0.956833
0.939542
0.922681
0.906213
0.890103
0.87432
0.858836
0.843627
0.82867
0.813946
0.799436
0.785126
1.50899
1.45927
1.41489
1.38141
1.35355
1.32637
1.29841
1.27013
1.24229
1.21528
1.18917
1.16397
1.13968
1.11627
1.09375
1.07207
1.05118
1.03103
1.01156
0.992708
0.974429
0.956669
0.939383
0.922528
0.906066
0.889962
0.874185
0.858708
0.843505
0.828554
0.813835
0.799331
0.785026
1.45776
1.43515
1.40634
1.37777
1.3508
1.32429
1.29734
1.26997
1.24269
1.21594
1.18997
1.16484
1.14058
1.1172
1.09466
1.07295
1.05202
1.03182
1.01229
0.99338
0.975047
0.957238
0.939907
0.92301
0.906507
0.890365
0.874552
0.859041
0.843808
0.828829
0.814085
0.799557
0.785231
1.43703
1.42425
1.40367
1.37881
1.35258
1.32611
1.29949
1.27266
1.24577
1.21915
1.1931
1.16781
1.14336
1.11977
1.09702
1.07509
1.05393
1.03351
1.01378
0.994694
0.976199
0.958244
0.940784
0.923773
0.907173
0.890946
0.87506
0.859487
0.844199
0.829174
0.81439
0.799829
0.785474
1.42857
1.41888
1.40158
1.37863
1.35293
1.3265
1.30001
1.27345
1.24682
1.22033
1.19428
1.16893
1.14441
1.12075
1.09793
1.07592
1.05469
1.0342
1.0144
0.995252
0.976699
0.958694
0.941188
0.924136
0.9075
0.891242
0.87533
0.859734
0.844428
0.829387
0.814589
0.800015
0.785648
1.42857
1.41888
1.40158
1.37863
1.35293
1.3265
1.30001
1.27345
1.24682
1.22033
1.19428
1.16893
1.14441
1.12075
1.09793
1.07592
1.05469
1.0342
1.0144
0.995252
0.976699
0.958694
0.941188
0.924136
0.9075
0.891242
0.87533
0.859734
0.844428
0.829387
0.814589
0.800015
0.785648
1.43703
1.42425
1.40367
1.37881
1.35258
1.32611
1.29949
1.27266
1.24577
1.21915
1.1931
1.16781
1.14336
1.11977
1.09702
1.07509
1.05393
1.03351
1.01378
0.994694
0.976199
0.958244
0.940784
0.923773
0.907173
0.890946
0.87506
0.859487
0.844199
0.829174
0.81439
0.799829
0.785474
1.45776
1.43515
1.40634
1.37777
1.3508
1.32429
1.29734
1.26997
1.24269
1.21594
1.18997
1.16484
1.14058
1.1172
1.09466
1.07295
1.05202
1.03182
1.01229
0.99338
0.975047
0.957238
0.939907
0.92301
0.906507
0.890365
0.874552
0.859041
0.843808
0.828829
0.814085
0.799557
0.785231
1.50899
1.45927
1.41489
1.38141
1.35355
1.32637
1.29841
1.27013
1.24229
1.21528
1.18917
1.16397
1.13968
1.11627
1.09375
1.07207
1.05118
1.03103
1.01156
0.992708
0.974429
0.956669
0.939383
0.922528
0.906066
0.889962
0.874185
0.858708
0.843505
0.828554
0.813835
0.799331
0.785026
1.51157
1.46169
1.417
1.38311
1.35484
1.32729
1.29902
1.27052
1.24249
1.21533
1.18911
1.16382
1.13945
1.116
1.09345
1.07175
1.05084
1.03069
1.01121
0.992366
0.974092
0.956341
0.939065
0.922222
0.905772
0.88968
0.873916
0.858452
0.843261
0.828322
0.813615
0.799123
0.784828
1.46036
1.43759
1.40849
1.37952
1.35212
1.32523
1.29796
1.27035
1.24289
1.21599
1.18989
1.16467
1.14035
1.11691
1.09435
1.07262
1.05167
1.03146
1.01193
0.993032
0.974707
0.956908
0.939588
0.922702
0.906213
0.890084
0.874284
0.858786
0.843565
0.828598
0.813866
0.79935
0.785035
1.43965
1.42671
1.40583
1.38059
1.35392
1.32705
1.30012
1.27304
1.24596
1.21919
1.19301
1.16762
1.1431
1.11947
1.09669
1.07474
1.05357
1.03315
1.01342
0.994341
0.975855
0.957911
0.940463
0.923466
0.906879
0.890665
0.874793
0.859233
0.843958
0.828945
0.814173
0.799623
0.785279
1.43119
1.42134
1.40376
1.38041
1.35427
1.32744
1.30063
1.27383
1.24701
1.22035
1.19418
1.16873
1.14414
1.12043
1.09759
1.07556
1.05432
1.03383
1.01404
0.994895
0.976352
0.958359
0.940865
0.923828
0.907205
0.890961
0.875063
0.859481
0.844188
0.829159
0.814373
0.79981
0.785453
1.43119
1.42134
1.40376
1.38041
1.35427
1.32744
1.30063
1.27383
1.24701
1.22035
1.19418
1.16873
1.14414
1.12043
1.09759
1.07556
1.05432
1.03383
1.01404
0.994895
0.976352
0.958359
0.940865
0.923828
0.907205
0.890961
0.875063
0.859481
0.844188
0.829159
0.814373
0.79981
0.785453
1.43965
1.42671
1.40583
1.38059
1.35392
1.32705
1.30012
1.27304
1.24596
1.21919
1.19301
1.16762
1.1431
1.11947
1.09669
1.07474
1.05357
1.03315
1.01342
0.994341
0.975855
0.957911
0.940463
0.923466
0.906879
0.890665
0.874793
0.859233
0.843958
0.828945
0.814173
0.799623
0.785279
1.46036
1.43759
1.40849
1.37952
1.35212
1.32523
1.29796
1.27035
1.24289
1.21599
1.18989
1.16467
1.14035
1.11691
1.09435
1.07262
1.05167
1.03146
1.01193
0.993032
0.974707
0.956908
0.939588
0.922702
0.906213
0.890084
0.874284
0.858786
0.843565
0.828598
0.813866
0.79935
0.785035
1.51157
1.46169
1.417
1.38311
1.35484
1.32729
1.29902
1.27052
1.24249
1.21533
1.18911
1.16382
1.13945
1.116
1.09345
1.07175
1.05084
1.03069
1.01121
0.992366
0.974092
0.956341
0.939065
0.922222
0.905772
0.88968
0.873916
0.858452
0.843261
0.828322
0.813615
0.799123
0.784828
1.51566
1.46547
1.42025
1.38568
1.35671
1.32859
1.29989
1.27104
1.24274
1.21535
1.18896
1.16354
1.13909
1.11557
1.09298
1.07125
1.05033
1.03016
1.01069
0.991851
0.973589
0.955851
0.938592
0.921766
0.905335
0.889263
0.873518
0.858072
0.8429
0.82798
0.81329
0.798814
0.784535
1.46448
1.44142
1.4118
1.38215
1.35405
1.32656
1.29884
1.27088
1.24313
1.21601
1.18973
1.16437
1.13996
1.11646
1.09386
1.0721
1.05114
1.03093
1.0114
0.992508
0.974195
0.956412
0.939109
0.922243
0.905773
0.889664
0.873885
0.858406
0.843204
0.828256
0.813541
0.799042
0.784743