/*--------------------------------*- C++ -*----------------------------------*\
| =========                 |                                                 |
| \\      /  F ield         | OpenFOAM: The Open Source CFD Toolbox           |
|  \\    /   O peration     | Version:  2412                                  |
|   \\  /    A nd           | Website:  www.openfoam.com                      |
|    \\/     M anipulation  |                                                 |
\*---------------------------------------------------------------------------*/
FoamFile
{
    version     2.0;
    format      ascii;
    arch        "LSB;label=32;scalar=64";
    class       surfaceScalarField;
    location    "6.00647367";
    object      phi;
}
// * * * * * * * * * * * * * * * * * * * * * * * * * * * * * * * * * * * * * //

dimensions      [0 3 -1 0 0 0 0];

oriented        oriented;

internalField   nonuniform List<scalar> 
45040
(
0.0023527
7.20601e-05
7.5239e-05
0.00212177
0.000111113
0.000119822
0.00188991
0.000109399
0.000122459
0.00167122
0.000101265
0.000117428
0.00147054
9.1501e-05
0.000109172
0.00129456
7.90817e-05
9.68991e-05
0.00114739
6.50526e-05
8.21172e-05
0.00102844
5.16115e-05
6.73377e-05
0.000933955
4.02707e-05
5.42162e-05
0.000859202
3.14582e-05
4.32946e-05
0.000799663
2.49957e-05
3.4543e-05
0.000751482
2.04748e-05
2.7707e-05
0.00071163
1.74211e-05
2.24308e-05
0.000677906
1.53835e-05
1.83407e-05
0.000648799
1.39909e-05
1.51157e-05
0.000623308
1.29732e-05
1.25177e-05
0.000600765
1.21557e-05
1.03869e-05
0.000580709
1.14365e-05
8.61979e-06
0.000562799
1.07622e-05
7.14831e-06
0.000546765
1.01096e-05
5.92412e-06
0.000532384
9.47138e-06
4.90984e-06
0.000519461
8.8487e-06
4.07433e-06
0.000507824
8.24601e-06
3.39043e-06
0.000497322
7.66816e-06
2.8341e-06
0.000487818
7.11937e-06
2.38415e-06
0.000479194
6.6029e-06
2.02162e-06
0.000471343
6.12087e-06
1.73028e-06
0.000464173
5.67432e-06
1.4956e-06
0.000457603
5.26304e-06
1.30703e-06
0.000451561
4.8859e-06
1.15621e-06
0.000445984
4.54131e-06
1.03543e-06
0.000440819
4.2274e-06
9.37963e-07
3.94186e-06
8.58568e-07
0.000436018
0.00246446
3.21407e-05
7.54552e-05
0.00237903
7.12114e-05
0.000125332
0.00227432
8.27564e-05
0.000131357
0.0021646
8.13928e-05
0.000129588
0.00205135
7.77059e-05
0.000127046
0.00193653
7.21989e-05
0.000121711
0.00182397
6.41198e-05
0.00011349
0.00171738
5.4422e-05
0.00010378
0.00161896
4.478e-05
9.39066e-05
0.00152966
3.63026e-05
8.44576e-05
0.00144968
2.9368e-05
7.56083e-05
0.00137877
2.39555e-05
6.74261e-05
0.00131635
1.98947e-05
5.99507e-05
0.00126159
1.69534e-05
5.31918e-05
0.00121357
1.4876e-05
4.71266e-05
0.00117142
1.34206e-05
4.17116e-05
0.00113429
1.23868e-05
3.68951e-05
0.00110148
1.16236e-05
3.26256e-05
0.00107236
1.10261e-05
2.88537e-05
0.00104641
1.05246e-05
2.55322e-05
0.00102319
1.00758e-05
2.26157e-05
0.00100232
9.65576e-06
2.00612e-05
0.000983489
9.25135e-06
1.78286e-05
0.00096642
8.85589e-06
1.58812e-05
0.000950887
8.46711e-06
1.41851e-05
0.000936696
8.08559e-06
1.2709e-05
0.000923679
7.71317e-06
1.14246e-05
0.000911694
7.35212e-06
1.03064e-05
0.000900621
7.00457e-06
9.33193e-06
0.000890353
6.67209e-06
8.48162e-06
0.0008808
6.35593e-06
7.73842e-06
0.000871883
6.05744e-06
7.0873e-06
5.77496e-06
6.5157e-06
0.000863534
0.0024447
1.25343e-05
7.49084e-05
0.00235929
3.19438e-05
0.00012468
0.00227184
4.06918e-05
0.000129506
0.00218591
4.10094e-05
0.000126317
0.00210051
3.95742e-05
0.000123529
0.00201584
3.76763e-05
0.000119192
0.00193289
3.46277e-05
0.000112451
0.00185278
3.04363e-05
0.000104092
0.0017764
2.58431e-05
9.53118e-05
0.00170438
2.15457e-05
8.67859e-05
0.00163716
1.78623e-05
7.87218e-05
0.0015751
1.48416e-05
7.11721e-05
0.00151838
1.24386e-05
6.41744e-05
0.00146699
1.05827e-05
5.77627e-05
0.00142073
9.18645e-06
5.19482e-05
0.00137929
8.15366e-06
4.67136e-05
0.00134226
7.39331e-06
4.20235e-05
0.00130922
6.82771e-06
3.78352e-05
0.00127974
6.39786e-06
3.41043e-05
0.00125341
6.06513e-06
3.07851e-05
0.00122986
5.79919e-06
2.78348e-05
0.0012087
5.57406e-06
2.5234e-05
0.00118964
5.3726e-06
2.29454e-05
0.00117238
5.18479e-06
2.09303e-05
0.00115668
5.00484e-06
1.91552e-05
0.00114235
4.82972e-06
1.75902e-05
0.0011292
4.65821e-06
1.62085e-05
0.00111707
4.49013e-06
1.49864e-05
0.00110585
4.32591e-06
1.39031e-05
0.00109541
4.16618e-06
1.29404e-05
0.00108568
4.01163e-06
1.20825e-05
0.00107655
3.8628e-06
1.13153e-05
3.71974e-06
1.06265e-05
0.00106798
0.00243768
1.20801e-14
7.48543e-05
0.00234468
-3.67162e-14
0.000124945
0.0022558
-4.69441e-14
0.000129571
0.0021711
-6.64934e-14
0.000125709
0.00208836
-8.47816e-14
0.000122319
0.00200823
-9.15246e-14
0.000117801
0.00193174
-9.12598e-14
0.000111118
0.00185935
-8.95711e-14
0.000102828
0.00179113
-8.74529e-14
9.40655e-05
0.0017271
-8.71262e-14
8.55681e-05
0.00166739
-8.83808e-14
7.75777e-05
0.0016121
-8.54435e-14
7.01294e-05
0.00156131
-7.95935e-14
6.32324e-05
0.00151498
-7.93166e-14
5.69099e-05
0.00147299
-8.67999e-14
5.11789e-05
0.00143511
-9.41845e-14
4.60321e-05
0.00140106
-9.2246e-14
4.14385e-05
0.00137054
-7.94295e-14
3.73551e-05
0.0013432
-6.26516e-14
3.37336e-05
0.00131873
-4.85821e-14
3.05355e-05
0.00129679
-3.6967e-14
2.77359e-05
0.00127709
-2.43581e-14
2.52807e-05
0.00125933
-5.05385e-15
2.31272e-05
0.00124328
2.39526e-14
2.12386e-05
0.0012287
5.8812e-14
1.95815e-05
0.00121541
9.34459e-14
1.81256e-05
0.00120322
1.19094e-13
1.68439e-05
0.001192
1.31454e-13
1.57127e-05
0.00118161
1.28892e-13
1.47112e-05
0.00117196
1.16443e-13
1.38216e-05
0.00116294
9.86261e-14
1.30283e-05
0.00115449
8.37234e-14
1.23179e-05
7.32818e-14
1.1679e-05
0.00114653
0.00243768
-1.25343e-05
7.48543e-05
0.00234468
-3.19438e-05
0.000124945
0.0022558
-4.06918e-05
0.000129571
0.0021711
-4.10094e-05
0.000125709
0.00208836
-3.95742e-05
0.000122319
0.00200823
-3.76763e-05
0.000117801
0.00193174
-3.46277e-05
0.000111118
0.00185935
-3.04363e-05
0.000102828
0.00179113
-2.58431e-05
9.40655e-05
0.0017271
-2.15457e-05
8.55681e-05
0.00166739
-1.78623e-05
7.75777e-05
0.0016121
-1.48416e-05
7.01294e-05
0.00156131
-1.24386e-05
6.32324e-05
0.00151498
-1.05827e-05
5.69099e-05
0.00147299
-9.18645e-06
5.11789e-05
0.00143511
-8.15366e-06
4.60321e-05
0.00140106
-7.39331e-06
4.14385e-05
0.00137054
-6.82771e-06
3.73551e-05
0.0013432
-6.39786e-06
3.37336e-05
0.00131873
-6.06513e-06
3.05355e-05
0.00129679
-5.79919e-06
2.77359e-05
0.00127709
-5.57406e-06
2.52807e-05
0.00125933
-5.3726e-06
2.31272e-05
0.00124328
-5.18479e-06
2.12386e-05
0.0012287
-5.00484e-06
1.95815e-05
0.00121541
-4.82972e-06
1.81256e-05
0.00120322
-4.65821e-06
1.68439e-05
0.001192
-4.49013e-06
1.57127e-05
0.00118161
-4.32591e-06
1.47112e-05
0.00117196
-4.16618e-06
1.38216e-05
0.00116294
-4.01163e-06
1.30283e-05
0.00115449
-3.8628e-06
1.23179e-05
-3.71974e-06
1.1679e-05
0.00114653
0.0024447
-3.21407e-05
7.49084e-05
0.00235929
-7.12114e-05
0.00012468
0.00227184
-8.27564e-05
0.000129506
0.00218591
-8.13928e-05
0.000126317
0.00210051
-7.77059e-05
0.000123529
0.00201584
-7.21989e-05
0.000119192
0.00193289
-6.41198e-05
0.000112451
0.00185278
-5.4422e-05
0.000104092
0.0017764
-4.478e-05
9.53118e-05
0.00170438
-3.63026e-05
8.67859e-05
0.00163716
-2.9368e-05
7.87218e-05
0.0015751
-2.39555e-05
7.11721e-05
0.00151838
-1.98947e-05
6.41744e-05
0.00146699
-1.69534e-05
5.77627e-05
0.00142073
-1.4876e-05
5.19482e-05
0.00137929
-1.34206e-05
4.67136e-05
0.00134226
-1.23868e-05
4.20235e-05
0.00130922
-1.16236e-05
3.78352e-05
0.00127974
-1.10261e-05
3.41043e-05
0.00125341
-1.05246e-05
3.07851e-05
0.00122986
-1.00758e-05
2.78348e-05
0.0012087
-9.65576e-06
2.5234e-05
0.00118964
-9.25135e-06
2.29454e-05
0.00117238
-8.85589e-06
2.09303e-05
0.00115668
-8.46711e-06
1.91552e-05
0.00114235
-8.08559e-06
1.75902e-05
0.0011292
-7.71317e-06
1.62085e-05
0.00111707
-7.35212e-06
1.49864e-05
0.00110585
-7.00457e-06
1.39031e-05
0.00109541
-6.67209e-06
1.29404e-05
0.00108568
-6.35593e-06
1.20825e-05
0.00107655
-6.05744e-06
1.13153e-05
-5.77496e-06
1.06265e-05
0.00106798
0.00246446
-7.20601e-05
7.54552e-05
0.00237903
-0.000111113
0.000125332
0.00227432
-0.000109399
0.000131357
0.0021646
-0.000101265
0.000129588
0.00205135
-9.1501e-05
0.000127046
0.00193653
-7.90817e-05
0.000121711
0.00182397
-6.50526e-05
0.00011349
0.00171738
-5.16115e-05
0.00010378
0.00161896
-4.02707e-05
9.39066e-05
0.00152966
-3.14582e-05
8.44576e-05
0.00144968
-2.49957e-05
7.56083e-05
0.00137877
-2.04748e-05
6.74261e-05
0.00131635
-1.74211e-05
5.99507e-05
0.00126159
-1.53835e-05
5.31918e-05
0.00121357
-1.39909e-05
4.71266e-05
0.00117142
-1.29732e-05
4.17116e-05
0.00113429
-1.21557e-05
3.68951e-05
0.00110148
-1.14365e-05
3.26256e-05
0.00107236
-1.07622e-05
2.88537e-05
0.00104641
-1.01096e-05
2.55322e-05
0.00102319
-9.47138e-06
2.26157e-05
0.00100232
-8.8487e-06
2.00612e-05
0.000983489
-8.24601e-06
1.78286e-05
0.00096642
-7.66816e-06
1.58812e-05
0.000950887
-7.11937e-06
1.41851e-05
0.000936696
-6.6029e-06
1.2709e-05
0.000923679
-6.12087e-06
1.14246e-05
0.000911694
-5.67432e-06
1.03064e-05
0.000900621
-5.26304e-06
9.33193e-06
0.000890353
-4.88589e-06
8.48162e-06
0.0008808
-4.54131e-06
7.73842e-06
0.000871883
-4.2274e-06
7.0873e-06
-3.94186e-06
6.5157e-06
0.000863534
0.0023527
7.5239e-05
0.00212177
0.000119822
0.00188991
0.000122459
0.00167122
0.000117428
0.00147054
0.000109172
0.00129456
9.68991e-05
0.00114739
8.21172e-05
0.00102844
6.73377e-05
0.000933955
5.42162e-05
0.000859202
4.32946e-05
0.000799663
3.4543e-05
0.000751482
2.7707e-05
0.00071163
2.24308e-05
0.000677906
1.83407e-05
0.000648799
1.51157e-05
0.000623308
1.25177e-05
0.000600765
1.03869e-05
0.000580709
8.61979e-06
0.000562799
7.14831e-06
0.000546765
5.92412e-06
0.000532384
4.90984e-06
0.000519461
4.07433e-06
0.000507824
3.39043e-06
0.000497322
2.8341e-06
0.000487818
2.38415e-06
0.000479194
2.02162e-06
0.000471343
1.73028e-06
0.000464173
1.4956e-06
0.000457603
1.30703e-06
0.000451561
1.15621e-06
0.000445984
1.03543e-06
0.000440819
9.37963e-07
8.58568e-07
0.000436018
0.00246464
7.22544e-05
3.83412e-05
0.00237903
0.000116485
8.89468e-05
0.00227336
0.000118074
0.000110056
0.00216284
0.000112908
0.000115045
0.00204908
0.000108194
0.000114737
0.00193396
0.000101839
0.00011018
0.0018214
9.3444e-05
0.000101236
0.00171522
8.41481e-05
8.93605e-05
0.00161772
7.51478e-05
7.6571e-05
0.00152978
6.69538e-05
6.42795e-05
0.00145148
5.96556e-05
5.31928e-05
0.00138238
5.32141e-05
4.35947e-05
0.00132171
4.75638e-05
3.55345e-05
0.00126851
4.26279e-05
2.89079e-05
0.00122178
3.83206e-05
2.35238e-05
0.00118058
3.45547e-05
1.91677e-05
0.00114407
3.12494e-05
1.56434e-05
0.00111157
2.83353e-05
1.27879e-05
0.00108249
2.57545e-05
1.0471e-05
0.00105637
2.34598e-05
8.58971e-06
0.0010328
2.14123e-05
7.06238e-06
0.00101147
1.95793e-05
5.82411e-06
0.000992108
1.79335e-05
4.82277e-06
0.000974474
1.64526e-05
4.01577e-06
0.000958371
1.51183e-05
3.36824e-06
0.000943628
1.3915e-05
2.84994e-06
0.000930092
1.28293e-05
2.4371e-06
0.000917631
1.18493e-05
2.1069e-06
0.000906129
1.09644e-05
1.84454e-06
0.000895482
1.01648e-05
1.63894e-06
0.000885597
9.44142e-06
1.4789e-06
0.000876394
8.78632e-06
1.3543e-06
8.1923e-06
1.25732e-06
0.000867803
0.00257737
3.20508e-05
3.82845e-05
0.00265097
7.49486e-05
9.32729e-05
0.00268994
9.08043e-05
0.000119656
0.00271099
9.24733e-05
0.000128979
0.0027208
9.19332e-05
0.000133492
0.0027179
9.09611e-05
0.000135486
0.00270248
8.82296e-05
0.000134127
0.00267724
8.35443e-05
0.000129623
0.00264532
7.78337e-05
0.000123141
0.00260899
7.19964e-05
0.000115748
0.00256975
6.64518e-05
0.00010805
0.00252877
6.12896e-05
0.00010033
0.00248703
5.65023e-05
9.27472e-05
0.00244535
5.20869e-05
8.54197e-05
0.00240431
4.80464e-05
7.84378e-05
0.00236435
4.43723e-05
7.18598e-05
0.00232573
4.10407e-05
6.57165e-05
0.00228865
3.80199e-05
6.00189e-05
0.00225322
3.52776e-05
5.47655e-05
0.00221948
3.27842e-05
4.99467e-05
0.00218745
3.05119e-05
4.55472e-05
0.00215711
2.84337e-05
4.1547e-05
0.00212842
2.65291e-05
3.79224e-05
0.00210133
2.47817e-05
3.46472e-05
0.00207576
2.31777e-05
3.16948e-05
0.00205164
2.17046e-05
2.90376e-05
0.00202889
2.03511e-05
2.66492e-05
0.00200744
1.91069e-05
2.45043e-05
0.00198719
1.79624e-05
2.25794e-05
0.00196808
1.69088e-05
2.08523e-05
0.00195002
1.59385e-05
1.93018e-05
0.00193294
1.50442e-05
1.79088e-05
1.42198e-05
1.66559e-05
0.00191677
0.00255678
1.24296e-05
3.77503e-05
0.00263023
3.34193e-05
9.27594e-05
0.00268723
4.45127e-05
0.000118796
0.00273189
4.67307e-05
0.000127397
0.00276918
4.68429e-05
0.000131333
0.00279865
4.70328e-05
0.000133654
0.00281925
4.6674e-05
0.0001334
0.00283137
4.52267e-05
0.000130295
0.00283634
4.2965e-05
0.000125206
0.00283554
4.04195e-05
0.000119164
0.00282999
3.79162e-05
0.000112803
0.00282052
3.55436e-05
0.000106397
0.00280784
3.32969e-05
0.000100058
0.00279264
3.11728e-05
9.38737e-05
0.00277553
2.91809e-05
8.7922e-05
0.00275703
2.73287e-05
8.22636e-05
0.00273754
2.56142e-05
7.69314e-05
0.00271743
2.4029e-05
7.19354e-05
0.00269698
2.25615e-05
6.72732e-05
0.00267642
2.11978e-05
6.29363e-05
0.00265593
1.99236e-05
5.89137e-05
0.00263566
1.87419e-05
5.51933e-05
0.00261573
1.7648e-05
5.17579e-05
0.00259622
1.66335e-05
4.8589e-05
0.00257719
1.56914e-05
4.56682e-05
0.00255869
1.48165e-05
4.29766e-05
0.00254075
1.40041e-05
4.04961e-05
0.00252339
1.32497e-05
3.82095e-05
0.0025066
1.2549e-05
3.61005e-05
0.0024904
1.18981e-05
3.41542e-05
0.00247477
1.12931e-05
3.23563e-05
0.00245971
1.07307e-05
3.06938e-05
1.02076e-05
2.91548e-05
0.00244519
0.00254973
9.68625e-16
3.75506e-05
0.00261559
-4.55964e-14
9.25033e-05
0.00267117
-4.99913e-14
0.000118505
0.00271683
-6.10299e-14
0.000126782
0.00275574
-7.31854e-14
0.000130256
0.00278833
-8.26479e-14
0.000132239
0.00281427
-9.24447e-14
0.000131851
0.00283364
-1.02389e-13
0.000128683
0.00284717
-1.10176e-13
0.000123508
0.00285577
-1.12096e-13
0.000117381
0.00286028
-1.172e-13
0.000110992
0.00286131
-1.31521e-13
0.000104642
0.0028594
-1.47156e-13
9.84343e-05
0.00285505
-1.54651e-13
9.24352e-05
0.0028487
-1.51146e-13
8.67121e-05
0.00284074
-1.45356e-13
8.13209e-05
0.0028315
-1.50148e-13
7.62897e-05
0.00282126
-1.64058e-13
7.16218e-05
0.00281025
-1.79352e-13
6.73055e-05
0.00279866
-1.91269e-13
6.33264e-05
0.00278665
-2.04149e-13
5.96694e-05
0.00277436
-2.28669e-13
5.6313e-05
0.0027619
-2.69112e-13
5.32331e-05
0.00274937
-3.08597e-13
5.04047e-05
0.00273684
-3.26207e-13
4.78045e-05
0.00272437
-2.98026e-13
4.54115e-05
0.00271201
-2.21798e-13
4.32064e-05
0.0026998
-1.13547e-13
4.11707e-05
0.00268777
-6.48797e-15
3.92879e-05
0.00267595
7.45267e-14
3.75429e-05
0.00266435
1.0529e-13
3.59225e-05
0.00265298
9.83095e-14
3.44146e-05
5.76556e-14
3.30085e-05
0.00264186
0.00254973
-1.24296e-05
3.75506e-05
0.00261559
-3.34193e-05
9.25033e-05
0.00267117
-4.45127e-05
0.000118505
0.00271683
-4.67307e-05
0.000126782
0.00275574
-4.68429e-05
0.000130256
0.00278833
-4.70328e-05
0.000132239
0.00281427
-4.6674e-05
0.000131851
0.00283364
-4.52267e-05
0.000128683
0.00284717
-4.2965e-05
0.000123508
0.00285577
-4.04195e-05
0.000117381
0.00286028
-3.79162e-05
0.000110992
0.00286131
-3.55436e-05
0.000104642
0.0028594
-3.32969e-05
9.84343e-05
0.00285505
-3.11728e-05
9.24352e-05
0.0028487
-2.91809e-05
8.67121e-05
0.00284074
-2.73287e-05
8.13209e-05
0.0028315
-2.56142e-05
7.62897e-05
0.00282126
-2.4029e-05
7.16218e-05
0.00281025
-2.25615e-05
6.73055e-05
0.00279866
-2.11978e-05
6.33264e-05
0.00278665
-1.99236e-05
5.96694e-05
0.00277436
-1.87419e-05
5.6313e-05
0.0027619
-1.7648e-05
5.32331e-05
0.00274937
-1.66335e-05
5.04047e-05
0.00273684
-1.56914e-05
4.78045e-05
0.00272437
-1.48165e-05
4.54115e-05
0.00271201
-1.40041e-05
4.32064e-05
0.0026998
-1.32497e-05
4.11707e-05
0.00268777
-1.2549e-05
3.92879e-05
0.00267595
-1.18981e-05
3.75429e-05
0.00266435
-1.12931e-05
3.59225e-05
0.00265298
-1.07307e-05
3.44146e-05
-1.02076e-05
3.30085e-05
0.00264186
0.00255678
-3.20508e-05
3.77503e-05
0.00263023
-7.49486e-05
9.27594e-05
0.00268723
-9.08043e-05
0.000118796
0.00273189
-9.24733e-05
0.000127397
0.00276918
-9.19332e-05
0.000131333
0.00279865
-9.09611e-05
0.000133654
0.00281925
-8.82296e-05
0.0001334
0.00283137
-8.35443e-05
0.000130295
0.00283634
-7.78337e-05
0.000125206
0.00283554
-7.19964e-05
0.000119164
0.00282999
-6.64518e-05
0.000112803
0.00282052
-6.12896e-05
0.000106397
0.00280784
-5.65023e-05
0.000100058
0.00279264
-5.20869e-05
9.38737e-05
0.00277553
-4.80464e-05
8.7922e-05
0.00275703
-4.43723e-05
8.22636e-05
0.00273754
-4.10407e-05
7.69314e-05
0.00271743
-3.80199e-05
7.19354e-05
0.00269698
-3.52776e-05
6.72732e-05
0.00267642
-3.27842e-05
6.29363e-05
0.00265593
-3.05119e-05
5.89137e-05
0.00263566
-2.84337e-05
5.51933e-05
0.00261573
-2.65291e-05
5.17579e-05
0.00259622
-2.47817e-05
4.8589e-05
0.00257719
-2.31777e-05
4.56682e-05
0.00255869
-2.17046e-05
4.29766e-05
0.00254075
-2.03511e-05
4.04961e-05
0.00252339
-1.91069e-05
3.82095e-05
0.0025066
-1.79624e-05
3.61005e-05
0.0024904
-1.69088e-05
3.41542e-05
0.00247477
-1.59385e-05
3.23563e-05
0.00245971
-1.50442e-05
3.06938e-05
-1.42198e-05
2.91548e-05
0.00244519
0.00257737
-7.22544e-05
3.82845e-05
0.00265097
-0.000116485
9.32729e-05
0.00268994
-0.000118074
0.000119656
0.00271099
-0.000112908
0.000128979
0.0027208
-0.000108194
0.000133492
0.0027179
-0.000101839
0.000135486
0.00270248
-9.3444e-05
0.000134127
0.00267724
-8.41481e-05
0.000129623
0.00264532
-7.51478e-05
0.000123141
0.00260899
-6.69538e-05
0.000115748
0.00256975
-5.96556e-05
0.00010805
0.00252877
-5.32141e-05
0.00010033
0.00248703
-4.75638e-05
9.27472e-05
0.00244535
-4.26279e-05
8.54197e-05
0.00240431
-3.83206e-05
7.84378e-05
0.00236435
-3.45547e-05
7.18598e-05
0.00232573
-3.12494e-05
6.57165e-05
0.00228865
-2.83353e-05
6.00189e-05
0.00225322
-2.57545e-05
5.47655e-05
0.00221948
-2.34598e-05
4.99467e-05
0.00218745
-2.14123e-05
4.55472e-05
0.00215711
-1.95793e-05
4.1547e-05
0.00212842
-1.79335e-05
3.79224e-05
0.00210133
-1.64526e-05
3.46472e-05
0.00207576
-1.51183e-05
3.16948e-05
0.00205164
-1.3915e-05
2.90376e-05
0.00202889
-1.28293e-05
2.66492e-05
0.00200744
-1.18493e-05
2.45043e-05
0.00198719
-1.09644e-05
2.25794e-05
0.00196808
-1.01648e-05
2.08523e-05
0.00195002
-9.44142e-06
1.93018e-05
0.00193294
-8.78632e-06
1.79088e-05
-8.1923e-06
1.66559e-05
0.00191677
0.00246464
3.83412e-05
0.00237903
8.89468e-05
0.00227336
0.000110056
0.00216284
0.000115045
0.00204908
0.000114737
0.00193396
0.00011018
0.0018214
0.000101236
0.00171522
8.93605e-05
0.00161772
7.6571e-05
0.00152978
6.42795e-05
0.00145148
5.31928e-05
0.00138238
4.35947e-05
0.00132171
3.55345e-05
0.00126851
2.89079e-05
0.00122178
2.35238e-05
0.00118058
1.91677e-05
0.00114407
1.56434e-05
0.00111157
1.27878e-05
0.00108249
1.0471e-05
0.00105637
8.58971e-06
0.0010328
7.06238e-06
0.00101147
5.82411e-06
0.000992108
4.82277e-06
0.000974474
4.01577e-06
0.000958371
3.36824e-06
0.000943628
2.84994e-06
0.000930092
2.4371e-06
0.000917631
2.1069e-06
0.000906129
1.84454e-06
0.000895482
1.63894e-06
0.000885597
1.4789e-06
0.000876394
1.3543e-06
1.25732e-06
0.000867803
0.00244431
7.17189e-05
2.23101e-05
0.00235768
0.000115804
5.97782e-05
0.00226818
0.000116179
8.33758e-05
0.0021809
0.000109593
9.27313e-05
0.00209534
0.00010463
9.56615e-05
0.00201128
9.92526e-05
9.49943e-05
0.00192931
9.23269e-05
9.08757e-05
0.00185054
8.43739e-05
8.37543e-05
0.00177592
7.64054e-05
7.47924e-05
0.00170603
6.89709e-05
6.5195e-05
0.00164124
6.21885e-05
5.57973e-05
0.00158173
5.60349e-05
4.70692e-05
0.00152753
5.04817e-05
3.92469e-05
0.00147851
4.55095e-05
3.24187e-05
0.00143437
4.10905e-05
2.65726e-05
0.00139473
3.7181e-05
2.16342e-05
0.00135914
3.37277e-05
1.75016e-05
0.00132718
3.06756e-05
1.40692e-05
0.00129844
2.79732e-05
1.12369e-05
0.00127254
2.55754e-05
8.91358e-06
0.00124915
2.34424e-05
7.01885e-06
0.00122795
2.15396e-05
5.48329e-06
0.00120868
1.98366e-05
4.248e-06
0.00119113
1.83078e-05
3.26365e-06
0.00117508
1.69321e-05
2.48746e-06
0.00116035
1.56926e-05
1.88152e-06
0.00114681
1.45741e-05
1.41005e-06
0.00113431
1.3563e-05
1.04229e-06
0.00112274
1.26459e-05
7.6834e-07
0.00111199
1.18149e-05
5.70006e-07
0.00110198
1.10606e-05
4.29419e-07
0.00109263
1.03748e-05
3.33092e-07
9.75e-06
2.70743e-07
0.00108386
0.0025562
3.1535e-05
2.2269e-05
0.00262865
7.43953e-05
6.22276e-05
0.00268467
8.98329e-05
8.99887e-05
0.00272901
9.06984e-05
0.000103531
0.00276688
8.95087e-05
0.000110745
0.00279759
8.87418e-05
0.000115279
0.00281974
8.69222e-05
0.000117384
0.00283355
8.33674e-05
0.000116821
0.00284036
7.8696e-05
0.000114046
0.00284147
7.37619e-05
0.000109847
0.00283782
6.90158e-05
0.000104867
0.00283016
6.4548e-05
9.94804e-05
0.00281917
6.0326e-05
9.38941e-05
0.00280551
5.63357e-05
8.82464e-05
0.0027898
5.25947e-05
8.26471e-05
0.00277254
4.91216e-05
7.71822e-05
0.00275415
4.59175e-05
7.19132e-05
0.002735
4.29691e-05
6.68808e-05
0.00271537
4.02563e-05
6.21103e-05
0.00269551
3.77585e-05
5.76182e-05
0.00267563
3.54561e-05
5.34134e-05
0.00265589
3.33316e-05
4.94967e-05
0.00263642
3.13699e-05
4.58625e-05
0.00261732
2.95582e-05
4.24999e-05
0.00259866
2.78846e-05
3.9399e-05
0.0025805
2.6337e-05
3.65483e-05
0.00256289
2.49044e-05
3.39334e-05
0.00254584
2.35771e-05
3.15374e-05
0.00252937
2.23452e-05
2.93491e-05
0.00251349
2.11997e-05
2.73553e-05
0.00249818
2.0133e-05
2.55399e-05
0.00248343
1.91383e-05
2.38874e-05
1.82097e-05
2.23832e-05
0.00246925
0.00253501
1.22178e-05
2.20555e-05
0.00260655
3.33338e-05
6.2285e-05
0.0026806
4.43112e-05
9.02669e-05
0.00274888
4.61968e-05
0.000103617
0.00281317
4.59674e-05
0.000110583
0.00287426
4.61047e-05
0.000115202
0.00293046
4.61183e-05
0.000118001
0.00298033
4.52471e-05
0.000118548
0.00302363
4.35578e-05
0.00011704
0.00306088
4.15249e-05
0.000114157
0.00309267
3.94935e-05
0.000110538
0.0031195
3.75595e-05
0.000106554
0.00314181
3.57005e-05
0.000102374
0.00316003
3.38963e-05
9.80921e-05
0.0031746
3.21567e-05
9.37885e-05
0.00318595
3.05011e-05
8.95366e-05
0.00319446
2.89405e-05
8.53919e-05
0.0032005
2.74745e-05
8.13895e-05
0.00320439
2.60973e-05
7.75489e-05
0.0032064
2.48015e-05
7.38804e-05
0.0032068
2.35809e-05
7.03888e-05
0.00320582
2.24314e-05
6.7075e-05
0.00320366
2.13486e-05
6.39367e-05
0.00320051
2.03327e-05
6.09693e-05
0.00319651
1.93803e-05
5.81679e-05
0.00319181
1.84856e-05
5.55268e-05
0.00318653
1.76444e-05
5.3039e-05
0.00318077
1.68531e-05
5.06965e-05
0.00317461
1.61082e-05
4.84908e-05
0.00316815
1.5406e-05
4.64142e-05
0.00316143
1.47433e-05
4.44588e-05
0.00315453
1.41174e-05
4.26169e-05
1.35258e-05
4.08812e-05
0.00314749
0.00252782
-2.23889e-15
2.19437e-05
0.00259152
-3.73986e-14
6.21437e-05
0.00266413
-4.29244e-14
9.02031e-05
0.00273366
-5.84204e-14
0.000103447
0.0027997
-7.13998e-14
0.000110184
0.00286349
-7.98887e-14
0.000114555
0.00292424
-9.17008e-14
0.00011722
0.00298045
-1.04012e-13
0.000117717
0.00303135
-1.15373e-13
0.000116168
0.00307702
-1.18413e-13
0.000113239
0.0031179
-1.17678e-13
0.000109604
0.00315443
-1.26154e-13
0.00010567
0.00318695
-1.44651e-13
0.000101615
0.00321576
-1.64141e-13
9.75214e-05
0.00324117
-1.75351e-13
9.34578e-05
0.0032635
-1.71554e-13
8.94907e-05
0.00328306
-1.64894e-13
8.56714e-05
0.00330013
-1.67565e-13
8.20292e-05
0.00331495
-1.82633e-13
7.85762e-05
0.00332777
-2.06503e-13
7.53144e-05
0.00333877
-2.33321e-13
7.22414e-05
0.00334817
-2.53747e-13
6.93519e-05
0.00335611
-2.7801e-13
6.66382e-05
0.00336276
-3.06615e-13
6.40914e-05
0.00336824
-3.44811e-13
6.17006e-05
0.00337268
-3.79731e-13
5.94536e-05
0.00337619
-4.03992e-13
5.73402e-05
0.00337887
-3.9159e-13
5.53495e-05
0.00338079
-3.54904e-13
5.34713e-05
0.00338205
-2.75345e-13
5.16962e-05
0.0033827
-1.98265e-13
5.0016e-05
0.00338281
-1.07971e-13
4.8423e-05
-5.91126e-14
4.69102e-05
0.00338243
0.00252782
-1.22178e-05
2.19437e-05
0.00259152
-3.33338e-05
6.21437e-05
0.00266413
-4.43112e-05
9.02031e-05
0.00273366
-4.61968e-05
0.000103447
0.0027997
-4.59674e-05
0.000110184
0.00286349
-4.61047e-05
0.000114555
0.00292424
-4.61183e-05
0.00011722
0.00298045
-4.52471e-05
0.000117717
0.00303135
-4.35578e-05
0.000116168
0.00307702
-4.15249e-05
0.000113239
0.0031179
-3.94935e-05
0.000109604
0.00315443
-3.75595e-05
0.00010567
0.00318695
-3.57005e-05
0.000101615
0.00321576
-3.38963e-05
9.75214e-05
0.00324117
-3.21567e-05
9.34578e-05
0.0032635
-3.05011e-05
8.94907e-05
0.00328306
-2.89405e-05
8.56714e-05
0.00330013
-2.74745e-05
8.20292e-05
0.00331495
-2.60973e-05
7.85762e-05
0.00332777
-2.48015e-05
7.53144e-05
0.00333877
-2.35809e-05
7.22414e-05
0.00334817
-2.24314e-05
6.93519e-05
0.00335611
-2.13486e-05
6.66382e-05
0.00336276
-2.03327e-05
6.40914e-05
0.00336824
-1.93803e-05
6.17006e-05
0.00337268
-1.84856e-05
5.94536e-05
0.00337619
-1.76444e-05
5.73402e-05
0.00337887
-1.68531e-05
5.53495e-05
0.00338079
-1.61082e-05
5.34713e-05
0.00338205
-1.5406e-05
5.16962e-05
0.0033827
-1.47433e-05
5.0016e-05
0.00338281
-1.41174e-05
4.8423e-05
-1.35258e-05
4.69102e-05
0.00338243
0.00253501
-3.1535e-05
2.20555e-05
0.00260655
-7.43953e-05
6.2285e-05
0.0026806
-8.98329e-05
9.02669e-05
0.00274888
-9.06984e-05
0.000103617
0.00281317
-8.95087e-05
0.000110583
0.00287426
-8.87418e-05
0.000115202
0.00293046
-8.69222e-05
0.000118001
0.00298033
-8.33674e-05
0.000118548
0.00302363
-7.8696e-05
0.00011704
0.00306088
-7.37619e-05
0.000114157
0.00309267
-6.90158e-05
0.000110538
0.0031195
-6.4548e-05
0.000106554
0.00314181
-6.0326e-05
0.000102374
0.00316003
-5.63357e-05
9.80921e-05
0.0031746
-5.25947e-05
9.37885e-05
0.00318595
-4.91216e-05
8.95366e-05
0.00319446
-4.59175e-05
8.53919e-05
0.0032005
-4.29691e-05
8.13895e-05
0.00320439
-4.02563e-05
7.75489e-05
0.0032064
-3.77585e-05
7.38804e-05
0.0032068
-3.54561e-05
7.03888e-05
0.00320582
-3.33316e-05
6.7075e-05
0.00320366
-3.13699e-05
6.39367e-05
0.00320051
-2.95582e-05
6.09693e-05
0.00319651
-2.78846e-05
5.81679e-05
0.00319181
-2.6337e-05
5.55268e-05
0.00318653
-2.49044e-05
5.3039e-05
0.00318077
-2.35771e-05
5.06965e-05
0.00317461
-2.23452e-05
4.84908e-05
0.00316815
-2.11997e-05
4.64142e-05
0.00316143
-2.0133e-05
4.44588e-05
0.00315453
-1.91383e-05
4.26169e-05
-1.82097e-05
4.08812e-05
0.00314749
0.0025562
-7.17189e-05
2.2269e-05
0.00262865
-0.000115804
6.22276e-05
0.00268467
-0.000116179
8.99887e-05
0.00272901
-0.000109593
0.000103531
0.00276688
-0.00010463
0.000110745
0.00279759
-9.92526e-05
0.000115279
0.00281974
-9.23269e-05
0.000117384
0.00283355
-8.43739e-05
0.000116821
0.00284036
-7.64054e-05
0.000114046
0.00284147
-6.89709e-05
0.000109847
0.00283782
-6.21885e-05
0.000104867
0.00283016
-5.60349e-05
9.94804e-05
0.00281917
-5.04817e-05
9.38941e-05
0.00280551
-4.55095e-05
8.82464e-05
0.0027898
-4.10905e-05
8.26471e-05
0.00277254
-3.7181e-05
7.71822e-05
0.00275415
-3.37277e-05
7.19132e-05
0.002735
-3.06756e-05
6.68808e-05
0.00271537
-2.79732e-05
6.21103e-05
0.00269551
-2.55754e-05
5.76182e-05
0.00267563
-2.34424e-05
5.34134e-05
0.00265589
-2.15396e-05
4.94967e-05
0.00263642
-1.98366e-05
4.58625e-05
0.00261732
-1.83078e-05
4.24999e-05
0.00259866
-1.69321e-05
3.9399e-05
0.0025805
-1.56926e-05
3.65483e-05
0.00256289
-1.45741e-05
3.39334e-05
0.00254584
-1.3563e-05
3.15374e-05
0.00252937
-1.26459e-05
2.93491e-05
0.00251349
-1.18149e-05
2.73553e-05
0.00249818
-1.10606e-05
2.55399e-05
0.00248343
-1.03748e-05
2.38874e-05
-9.75e-06
2.23832e-05
0.00246925
0.00244431
2.23101e-05
0.00235768
5.97782e-05
0.00226818
8.33758e-05
0.0021809
9.27313e-05
0.00209534
9.56615e-05
0.00201128
9.49943e-05
0.00192931
9.08757e-05
0.00185054
8.37543e-05
0.00177592
7.47924e-05
0.00170603
6.5195e-05
0.00164124
5.57973e-05
0.00158173
4.70692e-05
0.00152753
3.92469e-05
0.00147851
3.24187e-05
0.00143437
2.65726e-05
0.00139473
2.16342e-05
0.00135914
1.75016e-05
0.00132718
1.40692e-05
0.00129844
1.12368e-05
0.00127254
8.91358e-06
0.00124915
7.01885e-06
0.00122795
5.48329e-06
0.00120868
4.248e-06
0.00119113
3.26365e-06
0.00117508
2.48746e-06
0.00116035
1.88152e-06
0.00114681
1.41005e-06
0.00113431
1.04229e-06
0.00112274
7.6834e-07
0.00111199
5.70006e-07
0.00110198
4.29419e-07
0.00109263
3.33093e-07
2.70743e-07
0.00108386
0.00243584
7.17088e-05
1.47564e-05
0.00233793
0.000116262
4.14342e-05
0.00224315
0.000116552
6.16007e-05
0.00215438
0.000109307
7.21902e-05
0.00206993
0.000103623
7.64965e-05
0.00198982
9.79034e-05
7.71999e-05
0.00191452
9.09262e-05
7.52436e-05
0.00184433
8.29883e-05
7.0958e-05
0.00177922
7.49839e-05
6.49163e-05
0.00171903
6.74808e-05
5.79029e-05
0.00166359
6.06313e-05
5.06114e-05
0.00161273
5.44153e-05
4.35082e-05
0.00156632
4.87909e-05
3.6867e-05
0.00152417
4.37324e-05
3.08379e-05
0.00148604
3.92198e-05
2.54835e-05
0.00145164
3.52235e-05
2.08091e-05
0.00142066
3.17014e-05
1.67836e-05
0.00139277
2.86053e-05
1.33565e-05
0.00136765
2.58859e-05
1.04682e-05
0.00134501
2.34968e-05
8.05717e-06
0.00132457
2.13951e-05
6.06303e-06
0.00130608
1.95416e-05
4.43129e-06
0.00128931
1.79028e-05
3.11135e-06
0.00127406
1.64597e-05
2.05507e-06
0.00126015
1.51838e-05
1.22086e-06
0.0012474
1.4053e-05
5.74961e-07
0.00123566
1.3047e-05
1.02214e-07
0.00122485
1.2163e-05
-3.12949e-07
0.00121485
1.13742e-05
-6.07329e-07
0.00120557
1.06625e-05
-8.08875e-07
0.00119692
1.00183e-05
-9.43404e-07
0.00118885
9.43353e-06
-1.02494e-06
8.90096e-06
-1.06481e-06
0.00118128
0.00254783
3.13366e-05
1.48081e-05
0.00260916
7.41611e-05
4.29996e-05
0.0026602
8.95474e-05
6.59528e-05
0.00270304
9.00252e-05
7.99725e-05
0.00274103
8.82792e-05
8.81003e-05
0.00277409
8.70676e-05
9.3061e-05
0.00280141
8.50208e-05
9.59698e-05
0.00282297
8.13252e-05
9.69221e-05
0.00283946
7.64807e-05
9.60617e-05
0.00285163
7.13377e-05
9.38182e-05
0.00286005
6.64004e-05
9.06783e-05
0.00286514
6.17956e-05
8.70037e-05
0.00286732
5.74923e-05
8.3014e-05
0.00286699
5.34619e-05
7.88457e-05
0.00286455
4.97114e-05
7.45996e-05
0.00286034
4.62566e-05
7.03577e-05
0.00285467
4.30988e-05
6.61846e-05
0.00284781
4.02225e-05
6.21265e-05
0.00283998
3.76037e-05
5.82167e-05
0.0028314
3.52173e-05
5.44789e-05
0.00282224
3.30404e-05
5.09285e-05
0.00281266
3.10531e-05
4.75703e-05
0.00280278
2.92366e-05
4.44084e-05
0.00279272
2.75755e-05
4.14468e-05
0.00278256
2.6053e-05
3.86838e-05
0.00277239
2.46562e-05
3.61151e-05
0.00276227
2.33696e-05
3.37372e-05
0.00275223
2.2182e-05
3.15487e-05
0.00274234
2.10854e-05
2.9534e-05
0.00273261
2.00695e-05
2.76785e-05
0.00272307
1.91251e-05
2.59722e-05
0.00271374
1.82446e-05
2.44054e-05
1.7422e-05
2.29683e-05
0.00270463