/*--------------------------------*- C++ -*----------------------------------*\
| =========                 |                                                 |
| \\      /  F ield         | OpenFOAM: The Open Source CFD Toolbox           |
|  \\    /   O peration     | Version:  2412                                  |
|   \\  /    A nd           | Website:  www.openfoam.com                      |
|    \\/     M anipulation  |                                                 |
\*---------------------------------------------------------------------------*/
FoamFile
{
    version     2.0;
    format      ascii;
    arch        "LSB;label=32;scalar=64";
    class       volVectorField;
    location    "6.00647367";
    object      U_0;
}
// * * * * * * * * * * * * * * * * * * * * * * * * * * * * * * * * * * * * * //

dimensions      [0 1 -1 0 0 0 0];

internalField   nonuniform List<vector> 
16000
(
(0.929129 0.0157014 0.0162303)
(0.877805 0.0275838 0.0290355)
(0.809429 0.0278003 0.0300272)
(0.720605 0.0242776 0.0269954)
(0.629569 0.0203124 0.0231722)
(0.549827 0.0161988 0.0189396)
(0.484639 0.0120837 0.0145584)
(0.432336 0.00848361 0.0106079)
(0.390503 0.00578314 0.00749666)
(0.357184 0.00400675 0.00527064)
(0.33068 0.00296239 0.00376674)
(0.30941 0.0024194 0.00278158)
(0.292016 0.00218162 0.00213843)
(0.277456 0.00210085 0.00170146)
(0.264998 0.00207752 0.00137856)
(0.254153 0.00205572 0.00111732)
(0.244598 0.00201183 0.000893797)
(0.236115 0.00194131 0.00069979)
(0.228549 0.00184841 0.000533444)
(0.221782 0.00174021 0.000394239)
(0.215716 0.00162357 0.000281047)
(0.21027 0.00150417 0.000191696)
(0.205371 0.0013862 0.000123211)
(0.200954 0.00127258 7.22648e-05)
(0.196962 0.00116522 3.55797e-05)
(0.193345 0.0010653 1.00955e-05)
(0.190057 0.000973392 -6.78233e-06)
(0.187058 0.000889683 -1.73221e-05)
(0.184316 0.00081398 -2.32167e-05)
(0.181798 0.000745844 -2.57582e-05)
(0.179478 0.000684745 -2.60138e-05)
(0.177333 0.000630128 -2.48097e-05)
(0.175343 0.000581319 -2.27011e-05)
(0.964172 0.022298 0.0163358)
(0.953011 0.0429957 0.0314372)
(0.933193 0.0477395 0.0346801)
(0.89563 0.0468903 0.0333371)
(0.847559 0.0445051 0.0309881)
(0.797906 0.040712 0.0281571)
(0.750828 0.0355319 0.0247889)
(0.707061 0.0297043 0.02113)
(0.666426 0.0241091 0.0175852)
(0.629018 0.0192891 0.0144343)
(0.595134 0.0154276 0.0117699)
(0.564932 0.0124975 0.00957021)
(0.5383 0.010372 0.00777519)
(0.51494 0.0088812 0.0063211)
(0.494475 0.00785003 0.00514854)
(0.476525 0.00712615 0.00420433)
(0.460742 0.00659348 0.00344317)
(0.446817 0.00617234 0.00282839)
(0.434484 0.00581257 0.0023313)
(0.423515 0.0054855 0.00192941)
(0.413717 0.00517599 0.00160494)
(0.404929 0.00487767 0.00134329)
(0.397014 0.00458873 0.00113248)
(0.389853 0.00430943 0.000962787)
(0.38335 0.0040409 0.000826303)
(0.377419 0.00378455 0.000716484)
(0.37199 0.00354166 0.000627966)
(0.366999 0.00331319 0.00055636)
(0.362397 0.00309962 0.000498191)
(0.358136 0.00290099 0.000450655)
(0.354178 0.00271702 0.000411462)
(0.350489 0.00254729 0.000378753)
(0.347041 0.00239137 0.000351201)
(0.963608 0.0089725 0.0161572)
(0.946256 0.0199668 0.0308743)
(0.926657 0.0238675 0.0336881)
(0.896747 0.0240029 0.0320285)
(0.860562 0.0231067 0.0296549)
(0.82374 0.0217498 0.027157)
(0.788907 0.0197643 0.0243057)
(0.756265 0.0172455 0.0211302)
(0.725307 0.0145812 0.0179183)
(0.695818 0.0121194 0.0149388)
(0.667969 0.0100217 0.0123181)
(0.64205 0.0083132 0.0100711)
(0.618253 0.00696475 0.00816966)
(0.596628 0.00593189 0.00658094)
(0.577121 0.00516337 0.00527363)
(0.559614 0.004605 0.00421429)
(0.543957 0.00420514 0.00336692)
(0.529982 0.00391888 0.00269591)
(0.517516 0.00371005 0.00216912)
(0.506391 0.00355062 0.0017587)
(0.496447 0.00342127 0.00144144)
(0.487534 0.00330882 0.00119669)
(0.479515 0.00320459 0.00100806)
(0.472272 0.0031033 0.000863374)
(0.465699 0.00300223 0.000753335)
(0.459709 0.00290035 0.00067052)
(0.454225 0.00279767 0.000608863)
(0.44918 0.00269477 0.000563399)
(0.444519 0.00259247 0.000530126)
(0.440195 0.00249158 0.000505854)
(0.436167 0.0023929 0.000488054)
(0.432401 0.00229712 0.000474761)
(0.428867 0.00220495 0.00046437)
(0.963611 0.00249498 0.01618)
(0.942886 0.00596364 0.0310366)
(0.920354 0.00745777 0.0338369)
(0.88963 0.00767155 0.0320625)
(0.854466 0.00748555 0.0295694)
(0.81957 0.00718311 0.0270403)
(0.787134 0.00670729 0.0242314)
(0.757305 0.00603334 0.0211136)
(0.7295 0.00525664 0.0179381)
(0.703289 0.00449415 0.0149724)
(0.678604 0.00381273 0.0123535)
(0.655575 0.00323224 0.0101001)
(0.634325 0.00275259 0.00818133)
(0.614894 0.00236752 0.00656333)
(0.597245 0.00206683 0.00521874)
(0.581295 0.00183697 0.00412058)
(0.566937 0.00166337 0.00323824)
(0.554051 0.00153244 0.00253917)
(0.542506 0.00143284 0.0019923)
(0.532174 0.00135478 0.00157007)
(0.522918 0.00129192 0.00124616)
(0.514614 0.00123939 0.000998972)
(0.507143 0.0011935 0.000811877)
(0.500401 0.00115176 0.000672228)
(0.494291 0.00111268 0.00057012)
(0.488731 0.00107537 0.000497548)
(0.483647 0.00103936 0.000447926)
(0.478976 0.00100445 0.000415802)
(0.474664 0.000970574 0.000396703)
(0.470663 0.000937735 0.000387022)
(0.466935 0.000905994 0.0003839)
(0.463446 0.000875435 0.000385094)
(0.460167 0.000846048 0.000388853)
(0.963611 -0.00249498 0.01618)
(0.942886 -0.00596364 0.0310366)
(0.920354 -0.00745777 0.0338369)
(0.88963 -0.00767155 0.0320625)
(0.854466 -0.00748555 0.0295694)
(0.81957 -0.00718311 0.0270403)
(0.787134 -0.00670729 0.0242314)
(0.757305 -0.00603334 0.0211136)
(0.7295 -0.00525664 0.0179381)
(0.703289 -0.00449415 0.0149724)
(0.678604 -0.00381273 0.0123535)
(0.655575 -0.00323224 0.0101001)
(0.634325 -0.00275259 0.00818133)
(0.614894 -0.00236752 0.00656333)
(0.597245 -0.00206683 0.00521874)
(0.581295 -0.00183697 0.00412058)
(0.566937 -0.00166337 0.00323824)
(0.554051 -0.00153244 0.00253917)
(0.542506 -0.00143284 0.0019923)
(0.532174 -0.00135478 0.00157007)
(0.522918 -0.00129192 0.00124616)
(0.514614 -0.00123939 0.000998972)
(0.507143 -0.0011935 0.000811877)
(0.500401 -0.00115176 0.000672228)
(0.494291 -0.00111268 0.00057012)
(0.488731 -0.00107537 0.000497548)
(0.483647 -0.00103936 0.000447926)
(0.478976 -0.00100445 0.000415802)
(0.474664 -0.000970574 0.000396703)
(0.470663 -0.000937735 0.000387022)
(0.466935 -0.000905994 0.0003839)
(0.463446 -0.000875435 0.000385094)
(0.460167 -0.000846048 0.000388853)
(0.963608 -0.0089725 0.0161572)
(0.946256 -0.0199668 0.0308743)
(0.926657 -0.0238675 0.0336881)
(0.896747 -0.0240029 0.0320285)
(0.860562 -0.0231067 0.0296549)
(0.82374 -0.0217498 0.027157)
(0.788907 -0.0197643 0.0243057)
(0.756265 -0.0172455 0.0211302)
(0.725307 -0.0145812 0.0179183)
(0.695818 -0.0121194 0.0149388)
(0.667969 -0.0100217 0.0123181)
(0.64205 -0.0083132 0.0100711)
(0.618253 -0.00696475 0.00816966)
(0.596628 -0.00593189 0.00658094)
(0.577121 -0.00516337 0.00527363)
(0.559614 -0.004605 0.00421429)
(0.543957 -0.00420514 0.00336692)
(0.529982 -0.00391888 0.00269591)
(0.517516 -0.00371005 0.00216912)
(0.506391 -0.00355062 0.0017587)
(0.496447 -0.00342127 0.00144144)
(0.487534 -0.00330882 0.00119669)
(0.479515 -0.00320459 0.00100806)
(0.472272 -0.0031033 0.000863374)
(0.465699 -0.00300223 0.000753335)
(0.459709 -0.00290035 0.00067052)
(0.454225 -0.00279767 0.000608863)
(0.44918 -0.00269477 0.000563399)
(0.444519 -0.00259247 0.000530126)
(0.440195 -0.00249158 0.000505854)
(0.436167 -0.0023929 0.000488054)
(0.432401 -0.00229712 0.000474761)
(0.428867 -0.00220495 0.00046437)
(0.964172 -0.022298 0.0163358)
(0.953011 -0.0429957 0.0314372)
(0.933193 -0.0477395 0.0346801)
(0.89563 -0.0468903 0.0333371)
(0.847559 -0.0445051 0.0309881)
(0.797906 -0.040712 0.0281571)
(0.750828 -0.0355319 0.0247889)
(0.707061 -0.0297043 0.02113)
(0.666426 -0.0241091 0.0175852)
(0.629018 -0.0192891 0.0144343)
(0.595134 -0.0154276 0.0117699)
(0.564932 -0.0124975 0.00957021)
(0.5383 -0.010372 0.00777519)
(0.51494 -0.0088812 0.0063211)
(0.494475 -0.00785003 0.00514854)
(0.476525 -0.00712615 0.00420433)
(0.460742 -0.00659348 0.00344317)
(0.446817 -0.00617234 0.00282839)
(0.434484 -0.00581257 0.0023313)
(0.423515 -0.0054855 0.00192941)
(0.413717 -0.00517599 0.00160494)
(0.404929 -0.00487767 0.00134329)
(0.397014 -0.00458873 0.00113248)
(0.389853 -0.00430943 0.000962787)
(0.38335 -0.0040409 0.000826303)
(0.377419 -0.00378455 0.000716484)
(0.37199 -0.00354166 0.000627966)
(0.366999 -0.00331319 0.00055636)
(0.362397 -0.00309962 0.000498191)
(0.358136 -0.00290099 0.000450655)
(0.354178 -0.00271702 0.000411462)
(0.350489 -0.00254729 0.000378753)
(0.347041 -0.00239137 0.000351201)
(0.929129 -0.0157014 0.0162303)
(0.877805 -0.0275838 0.0290355)
(0.809429 -0.0278003 0.0300272)
(0.720605 -0.0242776 0.0269954)
(0.629569 -0.0203124 0.0231722)
(0.549827 -0.0161988 0.0189396)
(0.484639 -0.0120837 0.0145584)
(0.432336 -0.00848361 0.0106079)
(0.390503 -0.00578314 0.00749666)
(0.357184 -0.00400675 0.00527064)
(0.33068 -0.00296239 0.00376674)
(0.30941 -0.0024194 0.00278158)
(0.292016 -0.00218162 0.00213843)
(0.277456 -0.00210085 0.00170146)
(0.264998 -0.00207752 0.00137856)
(0.254153 -0.00205572 0.00111732)
(0.244598 -0.00201183 0.000893797)
(0.236115 -0.00194131 0.00069979)
(0.228549 -0.00184841 0.000533444)
(0.221782 -0.00174021 0.000394239)
(0.215716 -0.00162357 0.000281047)
(0.21027 -0.00150417 0.000191696)
(0.205371 -0.0013862 0.000123211)
(0.200954 -0.00127258 7.22648e-05)
(0.196962 -0.00116522 3.55798e-05)
(0.193345 -0.0010653 1.00955e-05)
(0.190057 -0.000973392 -6.78231e-06)
(0.187058 -0.000889683 -1.7322e-05)
(0.184316 -0.00081398 -2.32167e-05)
(0.181798 -0.000745844 -2.57582e-05)
(0.179478 -0.000684745 -2.60138e-05)
(0.177333 -0.000630128 -2.48097e-05)
(0.175343 -0.000581319 -2.27011e-05)
(0.964197 0.0158059 0.0241485)
(0.953041 0.030004 0.0481217)
(0.933096 0.0325002 0.0555814)
(0.895202 0.030654 0.0566685)
(0.846763 0.0281026 0.0553325)
(0.796876 0.0253087 0.0518328)
(0.749735 0.0221297 0.0463964)
(0.706069 0.0187586 0.0399146)
(0.665707 0.0155763 0.0333568)
(0.628757 0.0128403 0.0273462)
(0.595492 0.0106128 0.0221632)
(0.566004 0.00884103 0.0178773)
(0.540103 0.00744193 0.0144369)
(0.51742 0.00633781 0.0117211)
(0.497532 0.00546247 0.00958358)
(0.480031 0.00476071 0.00788886)
(0.464562 0.00418861 0.00652867)
(0.45082 0.00371334 0.00542375)
(0.438552 0.00331157 0.00451792)
(0.42755 0.00296712 0.00377125)
(0.417644 0.0026686 0.0031545)
(0.40869 0.00240771 0.00264539)
(0.400572 0.00217833 0.0022262)
(0.393189 0.00197592 0.00188224)
(0.386456 0.00179692 0.00160104)
(0.3803 0.00163843 0.00137163)
(0.374655 0.00149798 0.0011846)
(0.369465 0.0013734 0.00103178)
(0.364681 0.00126281 0.000907428)
(0.360258 0.00116449 0.000806713)
(0.356159 0.00107688 0.000724944)
(0.352347 0.000998681 0.000658023)
(0.348793 0.00092872 0.000602744)
(1.00072 0.0222852 0.0241495)
(1.03338 0.0448355 0.0501101)
(1.0649 0.0513846 0.059571)
(1.08434 0.051913 0.0623418)
(1.09132 0.0513099 0.0632377)
(1.09024 0.0501334 0.0629182)
(1.08466 0.0479905 0.06115)
(1.07606 0.0449545 0.0581217)
(1.06483 0.0414757 0.0543443)
(1.05134 0.0379608 0.0502698)
(1.03617 0.0346169 0.0461604)
(1.01998 0.0315091 0.0421426)
(1.0033 0.0286503 0.0382857)
(0.986522 0.0260431 0.0346376)
(0.969921 0.0236846 0.031231)
(0.953685 0.0215635 0.0280834)
(0.937944 0.0196616 0.0251995)
(0.922788 0.0179571 0.0225755)
(0.908273 0.016428 0.0202021)
(0.89443 0.0150542 0.0180664)
(0.881271 0.0138175 0.0161539)
(0.868795 0.0127015 0.0144484)
(0.856989 0.0116925 0.0129333)
(0.845834 0.0107787 0.0115916)
(0.835303 0.00995045 0.0104067)
(0.82537 0.00919927 0.00936252)
(0.816001 0.00851765 0.00844368)
(0.807165 0.00789898 0.00763576)
(0.79883 0.00733725 0.00692576)
(0.790963 0.00682692 0.00630189)
(0.783534 0.00636299 0.00575342)
(0.776511 0.00594094 0.00527063)
(0.769866 0.0055567 0.004845)
(1.00031 0.00890904 0.0239405)
(1.02724 0.0208487 0.0501181)
(1.05858 0.0259309 0.0594123)
(1.0848 0.0272109 0.0617192)
(1.10325 0.0274381 0.062293)
(1.11568 0.0274512 0.0621324)
(1.12434 0.0270644 0.0609095)
(1.13032 0.026131 0.0585689)
(1.13382 0.0248028 0.0554658)
(1.13486 0.0233255 0.0520173)
(1.13367 0.0218599 0.048492)
(1.13061 0.0204642 0.0450108)
(1.12607 0.0191473 0.0416253)
(1.1204 0.0179098 0.0383711)
(1.11388 0.0167544 0.0352802)
(1.10671 0.015683 0.0323773)
(1.09907 0.0146938 0.0296757)
(1.09112 0.013782 0.0271785)
(1.08297 0.0129413 0.0248826)
(1.07474 0.0121652 0.022781)
(1.06651 0.0114467 0.0208646)
(1.05834 0.0107798 0.0191229)
(1.05029 0.0101595 0.0175443)
(1.04239 0.00958192 0.0161171)
(1.03467 0.00904382 0.0148295)
(1.02715 0.0085424 0.01367)
(1.01986 0.00807518 0.0126271)
(1.01279 0.00763983 0.0116896)
(1.00596 0.00723413 0.0108472)
(0.999362 0.006856 0.0100899)
(0.992994 0.00650347 0.00940872)
(0.986855 0.00617475 0.00879527)
(0.980938 0.00586817 0.00824196)
(1.00037 0.00247894 0.0238696)
(1.02413 0.00620502 0.0501089)
(1.05253 0.00807316 0.059378)
(1.07762 0.00868942 0.061474)
(1.09664 0.00886835 0.0617632)
(1.11058 0.0089729 0.061419)
(1.12125 0.00897958 0.0601396)
(1.12974 0.00881629 0.0577992)
(1.1363 0.00850542 0.0546984)
(1.14092 0.00812148 0.0512543)
(1.14367 0.00772225 0.0477561)
(1.14478 0.00733106 0.0443339)
(1.14453 0.00695218 0.041032)
(1.1432 0.00658633 0.037875)
(1.14101 0.00623561 0.0348887)
(1.13811 0.00590228 0.0320958)
(1.13464 0.00558745 0.0295084)
(1.13071 0.005291 0.0271285)
(1.12644 0.0050121 0.0249501)
(1.1219 0.00474965 0.0229642)
(1.11716 0.00450179 0.0211591)
(1.11228 0.00426742 0.0195221)
(1.10731 0.00404585 0.0180409)
(1.1023 0.00383652 0.0167028)
(1.09727 0.003639 0.0154958)
(1.09226 0.00345287 0.0144078)
(1.08729 0.00327776 0.0134275)
(1.08237 0.00311327 0.0125443)
(1.07752 0.00295893 0.0117481)
(1.07274 0.00281427 0.0110297)
(1.06805 0.00267879 0.0103807)
(1.06346 0.002552 0.00979353)
(1.05896 0.00243341 0.00926117)
(1.00037 -0.00247894 0.0238696)
(1.02413 -0.00620502 0.0501089)
(1.05253 -0.00807316 0.059378)
(1.07762 -0.00868942 0.061474)
(1.09664 -0.00886835 0.0617632)
(1.11058 -0.0089729 0.061419)
(1.12125 -0.00897958 0.0601396)
(1.12974 -0.00881629 0.0577992)
(1.1363 -0.00850542 0.0546984)
(1.14092 -0.00812148 0.0512543)
(1.14367 -0.00772225 0.0477561)
(1.14478 -0.00733106 0.0443339)
(1.14453 -0.00695218 0.041032)
(1.1432 -0.00658633 0.037875)
(1.14101 -0.00623561 0.0348887)
(1.13811 -0.00590228 0.0320958)
(1.13464 -0.00558745 0.0295084)
(1.13071 -0.005291 0.0271285)
(1.12644 -0.0050121 0.0249501)
(1.1219 -0.00474965 0.0229642)
(1.11716 -0.00450179 0.0211591)
(1.11228 -0.00426742 0.0195221)
(1.10731 -0.00404585 0.0180409)
(1.1023 -0.00383652 0.0167028)
(1.09727 -0.003639 0.0154958)
(1.09226 -0.00345287 0.0144078)
(1.08729 -0.00327776 0.0134275)
(1.08237 -0.00311327 0.0125443)
(1.07752 -0.00295893 0.0117481)
(1.07274 -0.00281427 0.0110297)
(1.06805 -0.00267879 0.0103807)
(1.06346 -0.002552 0.00979353)
(1.05896 -0.00243341 0.00926117)
(1.00031 -0.00890904 0.0239405)
(1.02724 -0.0208487 0.0501181)
(1.05858 -0.0259309 0.0594123)
(1.0848 -0.0272109 0.0617192)
(1.10325 -0.0274381 0.062293)
(1.11568 -0.0274512 0.0621324)
(1.12434 -0.0270644 0.0609095)
(1.13032 -0.026131 0.0585689)
(1.13382 -0.0248028 0.0554658)
(1.13486 -0.0233255 0.0520173)
(1.13367 -0.0218599 0.048492)
(1.13061 -0.0204642 0.0450108)
(1.12607 -0.0191473 0.0416253)
(1.1204 -0.0179098 0.0383711)
(1.11388 -0.0167544 0.0352802)
(1.10671 -0.015683 0.0323773)
(1.09907 -0.0146938 0.0296757)
(1.09112 -0.013782 0.0271785)
(1.08297 -0.0129413 0.0248826)
(1.07474 -0.0121652 0.022781)
(1.06651 -0.0114467 0.0208646)
(1.05834 -0.0107798 0.0191229)
(1.05029 -0.0101595 0.0175443)
(1.04239 -0.00958192 0.0161171)
(1.03467 -0.00904382 0.0148295)
(1.02715 -0.0085424 0.01367)
(1.01986 -0.00807518 0.0126271)
(1.01279 -0.00763983 0.0116896)
(1.00596 -0.00723413 0.0108472)
(0.999362 -0.006856 0.0100899)
(0.992994 -0.00650347 0.00940872)
(0.986855 -0.00617475 0.00879527)
(0.980938 -0.00586817 0.00824196)
(1.00072 -0.0222852 0.0241495)
(1.03338 -0.0448355 0.0501101)
(1.0649 -0.0513846 0.059571)
(1.08434 -0.051913 0.0623418)
(1.09132 -0.0513099 0.0632377)
(1.09024 -0.0501334 0.0629182)
(1.08466 -0.0479905 0.06115)
(1.07606 -0.0449545 0.0581217)
(1.06483 -0.0414757 0.0543443)
(1.05134 -0.0379608 0.0502698)
(1.03617 -0.0346169 0.0461604)
(1.01998 -0.0315091 0.0421426)
(1.0033 -0.0286503 0.0382857)
(0.986522 -0.0260431 0.0346376)
(0.969921 -0.0236846 0.031231)
(0.953685 -0.0215635 0.0280834)
(0.937944 -0.0196616 0.0251995)
(0.922788 -0.0179571 0.0225755)
(0.908273 -0.016428 0.0202021)
(0.89443 -0.0150542 0.0180664)
(0.881271 -0.0138175 0.0161539)
(0.868795 -0.0127015 0.0144484)
(0.856989 -0.0116925 0.0129333)
(0.845834 -0.0107787 0.0115916)
(0.835303 -0.00995045 0.0104067)
(0.82537 -0.00919927 0.00936252)
(0.816001 -0.00851765 0.00844368)
(0.807165 -0.00789898 0.00763576)
(0.79883 -0.00733725 0.00692576)
(0.790963 -0.00682692 0.0063019)
(0.783534 -0.00636299 0.00575342)
(0.776511 -0.00594094 0.00527063)
(0.769866 -0.0055567 0.004845)
(0.964197 -0.0158059 0.0241485)
(0.953041 -0.030004 0.0481217)
(0.933096 -0.0325002 0.0555814)
(0.895202 -0.030654 0.0566685)
(0.846763 -0.0281026 0.0553325)
(0.796876 -0.0253087 0.0518328)
(0.749735 -0.0221297 0.0463964)
(0.706069 -0.0187586 0.0399146)
(0.665707 -0.0155763 0.0333568)
(0.628757 -0.0128403 0.0273462)
(0.595492 -0.0106128 0.0221632)
(0.566004 -0.00884103 0.0178773)
(0.540103 -0.00744193 0.0144369)
(0.51742 -0.00633781 0.0117211)
(0.497532 -0.00546247 0.00958358)
(0.480031 -0.00476071 0.00788886)
(0.464562 -0.00418861 0.00652867)
(0.45082 -0.00371334 0.00542375)
(0.438552 -0.00331157 0.00451792)
(0.42755 -0.00296712 0.00377125)
(0.417644 -0.0026686 0.0031545)
(0.40869 -0.00240771 0.00264539)
(0.400572 -0.00217833 0.0022262)
(0.393189 -0.00197592 0.00188224)
(0.386456 -0.00179692 0.00160104)
(0.3803 -0.00163843 0.00137163)
(0.374655 -0.00149798 0.0011846)
(0.369465 -0.0013734 0.00103178)
(0.364681 -0.00126281 0.000907428)
(0.360258 -0.00116449 0.000806713)
(0.356159 -0.00107688 0.000724944)
(0.352347 -0.000998681 0.000658023)
(0.348793 -0.00092872 0.000602744)
(0.963617 0.0156306 0.0123113)
(0.945918 0.0294443 0.0292414)
(0.925771 0.0315167 0.0378621)
(0.8952 0.029353 0.0411889)
(0.858543 0.0267805 0.0419959)
(0.821676 0.0243268 0.0411509)
(0.787166 0.0216728 0.0388025)
(0.755053 0.0187891 0.0352733)
(0.724741 0.0159331 0.0311099)
(0.69602 0.0133467 0.0268148)
(0.669075 0.0111258 0.0227159)
(0.644159 0.00925869 0.0189884)
(0.621397 0.0077012 0.0157097)
(0.600772 0.00641365 0.0128968)
(0.582176 0.00536279 0.0105276)
(0.565459 0.00451557 0.00855857)
(0.550453 0.00383767 0.00693797)
(0.536983 0.00329617 0.00561396)
(0.524879 0.00286237 0.00453827)
(0.513983 0.00251285 0.00366799)
(0.504152 0.00222916 0.0029662)
(0.495256 0.00199682 0.00240203)
(0.487184 0.00180454 0.00195003)
(0.479838 0.0016436 0.00158948)
(0.473132 0.00150727 0.0013037)
(0.46699 0.00139073 0.00107826)
(0.461347 0.00129005 0.000902092)
(0.456146 0.00120276 0.000761539)
(0.451341 0.00112633 0.000650557)
(0.446885 0.00105832 0.000565119)
(0.44274 0.00099717 0.000500514)
(0.438873 0.00094188 0.000452221)
(0.435254 0.000891714 0.000416554)
(1.00029 0.0220799 0.0122734)
(1.02688 0.0448243 0.0304362)
(1.05784 0.0511833 0.040685)
(1.08379 0.051228 0.0458225)
(1.10223 0.05029 0.0486548)
(1.11495 0.0492535 0.0502626)
(1.12415 0.0476238 0.0507193)
(1.13082 0.0452262 0.0500506)
(1.13506 0.0423482 0.0485066)
(1.13686 0.0393514 0.0464144)
(1.13642 0.036443 0.0440279)
(1.13409 0.0336843 0.0415014)
(1.13026 0.03108 0.0389248)
(1.12525 0.0286329 0.0363583)
(1.11931 0.0263528 0.0338467)
(1.11267 0.0242472 0.0314233)
(1.1055 0.0223159 0.0291111)
(1.09796 0.0205516 0.0269243)
(1.09017 0.0189433 0.0248707)
(1.08225 0.0174787 0.0229535)
(1.07428 0.0161459 0.0211726)
(1.06633 0.0149334 0.0195255)
(1.05848 0.0138301 0.0180079)
(1.05075 0.0128262 0.016614)
(1.04318 0.0119125 0.0153373)
(1.03581 0.011081 0.0141706)
(1.02865 0.0103239 0.0131068)
(1.02171 0.0096343 0.0121379)
(1.01501 0.00900545 0.0112565)
(1.00853 0.00843103 0.0104557)
(1.00229 0.00790561 0.00972859)
(0.996281 0.00742449 0.00906868)
(0.990495 0.00698339 0.00846973)
(0.999871 0.00875509 0.0121184)
(1.02068 0.020667 0.030313)
(1.05131 0.0256273 0.0405011)
(1.0838 0.0266669 0.0454325)
(1.11332 0.0267002 0.0481026)
(1.13903 0.0267419 0.0497988)
(1.16183 0.0265919 0.0506)
(1.18245 0.0259821 0.0504164)
(1.20099 0.0249681 0.0493985)
(1.21728 0.0237708 0.047843)
(1.23125 0.022561 0.0460071)
(1.24302 0.0214028 0.0440432)
(1.2528 0.0202998 0.0420267)
(1.26084 0.0192455 0.0400005)
(1.26734 0.0182417 0.0379985)
(1.27248 0.0172942 0.0360485)
(1.27641 0.0164062 0.0341707)
(1.27929 0.0155764 0.0323766)
(1.28125 0.0148011 0.0306714)
(1.28239 0.0140754 0.0290567)
(1.28285 0.0133948 0.0275319)
(1.2827 0.0127553 0.0260953)
(1.28205 0.0121537 0.0247445)
(1.28097 0.0115869 0.0234759)
(1.27952 0.0110526 0.0222856)
(1.27776 0.0105483 0.0211694)
(1.27575 0.0100721 0.020123)
(1.27353 0.00962211 0.0191422)
(1.27113 0.00919662 0.018223)
(1.2686 0.0087939 0.0173613)
(1.26596 0.00841248 0.0165533)
(1.26323 0.0080511 0.0157955)
(1.26043 0.00770859 0.0150843)
(0.999937 0.00243753 0.0120549)
(1.01757 0.00614917 0.0302185)
(1.0452 0.00800345 0.0403936)
(1.07655 0.00856931 0.0452153)
(1.10663 0.00870382 0.047738)
(1.13379 0.00881518 0.0493231)
(1.15843 0.00888802 0.0500743)
(1.18126 0.00882163 0.0498672)
(1.20246 0.00860992 0.0488198)
(1.2219 0.00831903 0.0472293)
(1.2394 0.00801014 0.045373)
(1.25498 0.00770865 0.0434175)
(1.26878 0.00741594 0.0414407)
(1.28099 0.0071285 0.0394813)
(1.29178 0.00684624 0.037569)
(1.30129 0.00657165 0.0357293)
(1.30964 0.00630694 0.0339805)
(1.31694 0.00605297 0.0323313)
(1.32329 0.00580955 0.0307833)
(1.3288 0.00557611 0.029334)
(1.33354 0.00535201 0.02798)
(1.33759 0.00513681 0.0267165)
(1.34104 0.00493032 0.0255382)
(1.34394 0.00473228 0.0244392)
(1.34635 0.00454231 0.0234131)
(1.34832 0.00436009 0.0224536)
(1.34989 0.0041854 0.0215549)
(1.35112 0.00401805 0.0207113)
(1.35203 0.00385786 0.0199181)
(1.35265 0.00370462 0.0191709)
(1.35302 0.00355815 0.0184658)
(1.35317 0.00341824 0.0177994)
(1.35311 0.0032847 0.0171685)
(0.999937 -0.00243753 0.0120549)
(1.01757 -0.00614917 0.0302185)
(1.0452 -0.00800345 0.0403936)
(1.07655 -0.00856931 0.0452153)
(1.10663 -0.00870382 0.047738)
(1.13379 -0.00881518 0.0493231)
(1.15843 -0.00888802 0.0500743)
(1.18126 -0.00882163 0.0498672)
(1.20246 -0.00860992 0.0488198)
(1.2219 -0.00831903 0.0472293)
(1.2394 -0.00801014 0.045373)
(1.25498 -0.00770865 0.0434175)
(1.26878 -0.00741594 0.0414407)
(1.28099 -0.0071285 0.0394813)
(1.29178 -0.00684624 0.037569)
(1.30129 -0.00657165 0.0357293)
(1.30964 -0.00630694 0.0339805)
(1.31694 -0.00605297 0.0323313)
(1.32329 -0.00580955 0.0307833)
(1.3288 -0.00557611 0.029334)
(1.33354 -0.00535201 0.02798)
(1.33759 -0.00513681 0.0267165)
(1.34104 -0.00493032 0.0255382)
(1.34394 -0.00473228 0.0244392)
(1.34635 -0.00454231 0.0234131)
(1.34832 -0.0043601 0.0224536)
(1.34989 -0.0041854 0.0215549)
(1.35112 -0.00401805 0.0207113)
(1.35203 -0.00385786 0.0199181)
(1.35265 -0.00370462 0.0191709)
(1.35302 -0.00355815 0.0184658)
(1.35317 -0.00341824 0.0177994)
(1.35311 -0.0032847 0.0171685)
(0.999871 -0.00875509 0.0121184)
(1.02068 -0.020667 0.030313)
(1.05131 -0.0256273 0.0405011)
(1.0838 -0.0266669 0.0454325)
(1.11332 -0.0267002 0.0481026)
(1.13903 -0.0267419 0.0497988)
(1.16183 -0.0265919 0.0506)
(1.18245 -0.0259821 0.0504164)
(1.20099 -0.0249681 0.0493985)
(1.21728 -0.0237708 0.047843)
(1.23125 -0.022561 0.0460071)
(1.24302 -0.0214028 0.0440432)
(1.2528 -0.0202998 0.0420267)
(1.26084 -0.0192455 0.0400005)
(1.26734 -0.0182417 0.0379985)
(1.27248 -0.0172942 0.0360485)
(1.27641 -0.0164062 0.0341707)
(1.27929 -0.0155764 0.0323766)
(1.28125 -0.0148011 0.0306714)
(1.28239 -0.0140754 0.0290567)
(1.28285 -0.0133948 0.0275319)
(1.2827 -0.0127553 0.0260953)
(1.28205 -0.0121537 0.0247445)
(1.28097 -0.0115869 0.0234759)
(1.27952 -0.0110526 0.0222856)
(1.27776 -0.0105483 0.0211694)
(1.27575 -0.0100721 0.020123)
(1.27353 -0.00962211 0.0191422)
(1.27113 -0.00919662 0.018223)
(1.2686 -0.0087939 0.0173613)
(1.26596 -0.00841248 0.0165533)
(1.26323 -0.0080511 0.0157955)
(1.26043 -0.00770859 0.0150843)
(1.00029 -0.0220799 0.0122734)
(1.02688 -0.0448243 0.0304362)
(1.05784 -0.0511833 0.040685)
(1.08379 -0.051228 0.0458225)
(1.10223 -0.05029 0.0486548)
(1.11495 -0.0492535 0.0502626)
(1.12415 -0.0476238 0.0507193)
(1.13082 -0.0452262 0.0500506)
(1.13506 -0.0423482 0.0485066)
(1.13686 -0.0393514 0.0464144)
(1.13642 -0.036443 0.0440279)
(1.13409 -0.0336843 0.0415014)
(1.13026 -0.03108 0.0389248)
(1.12525 -0.0286329 0.0363583)
(1.11931 -0.0263528 0.0338467)
(1.11267 -0.0242472 0.0314233)
(1.1055 -0.0223159 0.0291111)
(1.09796 -0.0205516 0.0269243)
(1.09017 -0.0189433 0.0248707)
(1.08225 -0.0174787 0.0229535)
(1.07428 -0.0161459 0.0211726)
(1.06633 -0.0149334 0.0195255)
(1.05848 -0.0138301 0.0180079)
(1.05075 -0.0128262 0.016614)
(1.04318 -0.0119125 0.0153373)
(1.03581 -0.011081 0.0141706)
(1.02865 -0.0103239 0.0131068)
(1.02171 -0.0096343 0.0121379)
(1.01501 -0.00900545 0.0112565)
(1.00853 -0.00843103 0.0104557)
(1.00229 -0.00790561 0.00972859)
(0.996281 -0.00742449 0.00906868)
(0.990495 -0.00698339 0.00846973)
(0.963617 -0.0156306 0.0123113)
(0.945918 -0.0294443 0.0292414)
(0.925771 -0.0315167 0.0378621)
(0.8952 -0.029353 0.0411889)
(0.858543 -0.0267805 0.0419959)
(0.821676 -0.0243268 0.0411509)
(0.787166 -0.0216728 0.0388025)
(0.755053 -0.0187891 0.0352733)
(0.724741 -0.0159331 0.0311099)
(0.69602 -0.0133467 0.0268148)
(0.669075 -0.0111258 0.0227159)
(0.644159 -0.00925869 0.0189884)
(0.621397 -0.0077012 0.0157097)
(0.600772 -0.00641365 0.0128968)
(0.582176 -0.00536279 0.0105276)
(0.565459 -0.00451557 0.00855857)
(0.550453 -0.00383767 0.00693797)
(0.536983 -0.00329617 0.00561396)
(0.524879 -0.00286237 0.00453827)
(0.513983 -0.00251285 0.00366799)
(0.504152 -0.00222916 0.0029662)
(0.495256 -0.00199682 0.00240203)
(0.487184 -0.00180454 0.00195003)
(0.479838 -0.0016436 0.00158948)
(0.473132 -0.00150727 0.0013037)
(0.46699 -0.00139073 0.00107826)
(0.461347 -0.00129005 0.000902092)
(0.456146 -0.00120276 0.000761539)
(0.451341 -0.00112633 0.000650557)
(0.446885 -0.00105832 0.000565119)
(0.44274 -0.00099717 0.000500514)
(0.438873 -0.00094188 0.000452221)
(0.435254 -0.000891714 0.000416554)
(0.963609 0.0156634 0.00751885)
(0.94158 0.0296571 0.0197045)
(0.916971 0.0317329 0.0277224)
(0.884023 0.0294341 0.0319075)
(0.847299 0.0267023 0.0336043)
(0.811878 0.0241768 0.033752)
(0.779759 0.0215395 0.0327037)
(0.750744 0.0187028 0.0306542)
(0.72406 0.0158773 0.0278925)
(0.69923 0.0132934 0.0247627)
(0.676157 0.0110538 0.021555)
(0.654887 0.00915303 0.0184641)
(0.635433 0.00754819 0.0156041)
(0.617742 0.0062009 0.0130333)
(0.601717 0.00508327 0.0107724)
(0.587243 0.00416999 0.00881701)
(0.574197 0.00343355 0.00714789)
(0.562451 0.00284523 0.00573813)
(0.551876 0.00237808 0.00455788)
(0.54235 0.00200863 0.0035775)
(0.533756 0.00171736 0.00276896)
(0.52599 0.00148801 0.00210735)
(0.518957 0.00130725 0.00157072)
(0.512568 0.00116379 0.00113941)
(0.506748 0.00104847 0.000796011)
(0.501426 0.000955246 0.000525255)
(0.496542 0.000878345 0.000313296)
(0.49204 0.000817891 0.000155488)
(0.487884 0.000770113 4.11256e-05)
(0.484033 0.000730605 -4.06582e-05)
(0.480454 0.00069676 -9.72343e-05)
(0.477114 0.000667153 -0.00013371)
(0.47399 0.000640805 -0.000154232)
(1.00036 0.0220154 0.00753558)
(1.0229 0.0448614 0.0204488)
(1.04951 0.0512293 0.0295998)
(1.07291 0.0510655 0.035291)
(1.09085 0.0498109 0.0387113)
(1.10451 0.0485363 0.0408007)
(1.11559 0.0467974 0.0419184)
(1.12491 0.0443578 0.0421624)
(1.13258 0.0414416 0.0416542)
(1.13851 0.0383978 0.0405865)
(1.14274 0.0354493 0.0391529)
(1.14544 0.0326693 0.0374976)
(1.14685 0.0300602 0.035714)
(1.14716 0.0276169 0.0338627)
(1.14657 0.0253441 0.0319877)
(1.14521 0.0232491 0.030123)
(1.1432 0.0213329 0.0282945)
(1.14067 0.0195893 0.0265215)
(1.13771 0.0180071 0.0248175)
(1.1344 0.0165739 0.0231917)
(1.13083 0.0152768 0.0216501)
(1.12707 0.014104 0.0201958)
(1.12316 0.0130434 0.0188299)
(1.11915 0.0120848 0.0175523)
(1.1151 0.011217 0.0163618)
(1.11102 0.0104317 0.0152562)
(1.10695 0.00971939 0.0142327)
(1.10291 0.00907502 0.0132882)
(1.09892 0.00849139 0.0124192)
(1.09499 0.00796109 0.0116208)
(1.09113 0.00747797 0.0108881)
(1.08736 0.00703693 0.0102166)
(1.08367 0.00663349 0.00960149)
(0.999939 0.00869077 0.00748394)
(1.01669 0.0205625 0.0204648)
(1.04292 0.0254904 0.0297095)
(1.07287 0.0263899 0.0354057)
(1.10194 0.0262402 0.0388241)
(1.12861 0.026135 0.0410025)
(1.15315 0.0259028 0.0423519)
(1.17615 0.0252382 0.0429475)
(1.19771 0.0241567 0.0428645)
(1.21768 0.0228734 0.0422661)
(1.23586 0.0215764 0.0413369)
(1.25225 0.0203461 0.0402159)
(1.26694 0.0191914 0.0389846)
(1.28009 0.0181043 0.0376882)
(1.29185 0.0170838 0.0363568)
(1.30234 0.0161348 0.0350145)
(1.31167 0.0152601 0.0336811)
(1.31994 0.0144577 0.0323708)
(1.32725 0.0137214 0.0310932)
(1.3337 0.0130445 0.0298542)
(1.33937 0.01242 0.0286576)
(1.34434 0.0118424 0.0275058)
(1.34869 0.0113066 0.0264003)
(1.35247 0.0108083 0.0253415)
(1.35576 0.0103435 0.0243293)
(1.35859 0.00990857 0.0233629)
(1.36103 0.00950003 0.0224416)
(1.3631 0.00911529 0.0215643)
(1.36486 0.00875194 0.0207295)
(1.36633 0.00840781 0.0199359)
(1.36754 0.00808112 0.0191817)
(1.36852 0.00777048 0.018465)
(1.36929 0.0074747 0.017784)
(1.00001 0.00241545 0.00745427)
(1.01357 0.0061053 0.020429)
(1.03676 0.00795232 0.0297066)
(1.06552 0.0084813 0.0353868)
(1.09518 0.00856793 0.0387574)
(1.12332 0.00863754 0.040886)
(1.14971 0.00868437 0.0422056)
(1.17486 0.0085979 0.0427867)
(1.19899 0.00836061 0.0426917)
(1.22195 0.00803729 0.0420821)
(1.24348 0.00769556 0.0411521)
(1.26345 0.00736699 0.040051)
(1.28191 0.0070552 0.0388649)
(1.29895 0.00675601 0.0376385)
(1.31471 0.00646813 0.0363989)
(1.32929 0.00619343 0.0351679)
(1.34277 0.00593386 0.0339629)
(1.35522 0.00568985 0.032796)
(1.36673 0.00546048 0.0316738)
(1.37737 0.00524439 0.0305994)
(1.38721 0.00504032 0.0295737)
(1.39633 0.00484731 0.0285966)
(1.40477 0.00466455 0.0276672)
(1.4126 0.00449133 0.0267838)
(1.41986 0.00432692 0.0259444)
(1.4266 0.00417047 0.0251464)