/*--------------------------------*- C++ -*----------------------------------*\
| =========                 |                                                 |
| \\      /  F ield         | OpenFOAM: The Open Source CFD Toolbox           |
|  \\    /   O peration     | Version:  2412                                  |
|   \\  /    A nd           | Website:  www.openfoam.com                      |
|    \\/     M anipulation  |                                                 |
\*---------------------------------------------------------------------------*/
FoamFile
{
    version     2.0;
    format      ascii;
    arch        "LSB;label=32;scalar=64";
    class       volVectorField;
    location    "8.002188551";
    object      U;
}
// * * * * * * * * * * * * * * * * * * * * * * * * * * * * * * * * * * * * * //

dimensions      [0 1 -1 0 0 0 0];

internalField   nonuniform List<vector> 
16000
(
(0.929129 0.0157018 0.0162308)
(0.877806 0.0275845 0.0290361)
(0.809431 0.0278009 0.0300277)
(0.720606 0.0242781 0.0269958)
(0.62957 0.0203129 0.0231726)
(0.549828 0.0161992 0.0189399)
(0.48464 0.0120841 0.0145587)
(0.432337 0.00848384 0.0106081)
(0.390504 0.00578332 0.00749682)
(0.357185 0.0040069 0.00527076)
(0.330681 0.00296251 0.00376683)
(0.309411 0.0024195 0.00278165)
(0.292016 0.0021817 0.00213848)
(0.277456 0.00210093 0.0017015)
(0.264998 0.00207759 0.0013786)
(0.254153 0.00205578 0.00111735)
(0.244598 0.00201188 0.000893819)
(0.236115 0.00194135 0.000699807)
(0.22855 0.00184845 0.000533456)
(0.221782 0.00174024 0.000394249)
(0.215717 0.0016236 0.000281055)
(0.210271 0.00150419 0.000191703)
(0.205372 0.00138622 0.000123217)
(0.200955 0.00127259 7.22697e-05)
(0.196963 0.00116523 3.55845e-05)
(0.193346 0.0010653 1.01e-05)
(0.190057 0.000973394 -6.77775e-06)
(0.187059 0.00088968 -1.73178e-05)
(0.184317 0.000813974 -2.32125e-05)
(0.181799 0.000745834 -2.57544e-05)
(0.179479 0.000684733 -2.60098e-05)
(0.177334 0.000630113 -2.4806e-05)
(0.175344 0.000581301 -2.26969e-05)
(0.964172 0.0222983 0.0163362)
(0.953011 0.042996 0.0314378)
(0.933194 0.0477397 0.0346807)
(0.89563 0.0468904 0.0333375)
(0.847559 0.0445053 0.0309884)
(0.797907 0.0407122 0.0281574)
(0.750829 0.035532 0.0247891)
(0.707062 0.0297044 0.0211302)
(0.666427 0.0241092 0.0175854)
(0.629018 0.0192892 0.0144344)
(0.595135 0.0154277 0.0117701)
(0.564932 0.0124976 0.00957032)
(0.538301 0.0103721 0.00777528)
(0.514941 0.00888125 0.00632117)
(0.494475 0.00785007 0.00514859)
(0.476526 0.00712619 0.00420437)
(0.460743 0.00659351 0.00344319)
(0.446818 0.00617236 0.0028284)
(0.434485 0.00581259 0.0023313)
(0.423516 0.00548552 0.0019294)
(0.413718 0.005176 0.00160493)
(0.404931 0.00487767 0.00134328)
(0.397015 0.00458873 0.00113247)
(0.389855 0.00430943 0.000962774)
(0.383351 0.00404089 0.00082629)
(0.377421 0.00378454 0.000716472)
(0.371991 0.00354164 0.000627955)
(0.367001 0.00331317 0.00055635)
(0.362398 0.00309961 0.000498182)
(0.358137 0.00290097 0.000450645)
(0.354179 0.002717 0.000411453)
(0.350491 0.00254727 0.000378743)
(0.347043 0.00239134 0.000351193)
(0.963608 0.00897238 0.0161576)
(0.946257 0.0199665 0.0308749)
(0.926658 0.023867 0.0336887)
(0.896748 0.0240025 0.032029)
(0.860562 0.0231064 0.0296553)
(0.823741 0.0217496 0.0271573)
(0.788907 0.0197641 0.0243061)
(0.756265 0.0172454 0.0211305)
(0.725308 0.0145811 0.0179186)
(0.695818 0.0121193 0.014939)
(0.66797 0.0100217 0.0123183)
(0.64205 0.00831315 0.0100713)
(0.618253 0.00696471 0.00816982)
(0.596629 0.00593185 0.00658109)
(0.577122 0.00516334 0.00527375)
(0.559615 0.00460497 0.0042144)
(0.543957 0.00420511 0.00336702)
(0.529982 0.00391885 0.00269599)
(0.517517 0.00371002 0.0021692)
(0.506391 0.00355059 0.00175876)
(0.496448 0.00342124 0.0014415)
(0.487535 0.00330879 0.00119674)
(0.479516 0.00320456 0.00100811)
(0.472272 0.00310327 0.00086341)
(0.4657 0.0030022 0.000753366)
(0.45971 0.00290031 0.000670547)
(0.454225 0.00279764 0.000608887)
(0.449181 0.00269475 0.00056342)
(0.44452 0.00259245 0.000530145)
(0.440196 0.00249156 0.000505869)
(0.436168 0.00239289 0.000488068)
(0.432402 0.00229711 0.000474771)
(0.428868 0.00220494 0.00046438)
(0.963611 0.00249497 0.0161804)
(0.942887 0.00596359 0.0310372)
(0.920355 0.00745772 0.0338375)
(0.889631 0.00767156 0.032063)
(0.854467 0.00748562 0.0295698)
(0.819571 0.00718323 0.0270407)
(0.787135 0.00670743 0.0242318)
(0.757305 0.00603348 0.0211139)
(0.729501 0.00525678 0.0179384)
(0.703289 0.00449429 0.0149727)
(0.678605 0.00381286 0.0123538)
(0.655575 0.00323236 0.0101003)
(0.634326 0.00275269 0.00818154)
(0.614895 0.00236761 0.00656352)
(0.597246 0.00206692 0.00521891)
(0.581296 0.00183704 0.00412074)
(0.566938 0.00166344 0.00323838)
(0.554051 0.0015325 0.00253929)
(0.542507 0.00143289 0.00199242)
(0.532174 0.00135483 0.00157017)
(0.522919 0.00129196 0.00124625)
(0.514614 0.00123943 0.000999051)
(0.507144 0.00119353 0.000811948)
(0.500401 0.00115179 0.000672288)
(0.494292 0.0011127 0.000570173)
(0.488732 0.00107539 0.000497593)
(0.483648 0.00103938 0.000447967)
(0.478976 0.00100447 0.000415839)
(0.474664 0.000970588 0.000396737)
(0.470663 0.000937749 0.000387051)
(0.466935 0.000906008 0.000383927)
(0.463446 0.000875451 0.000385116)
(0.460167 0.000846065 0.000388875)
(0.963611 -0.00249497 0.0161804)
(0.942887 -0.00596359 0.0310372)
(0.920355 -0.00745772 0.0338375)
(0.889631 -0.00767156 0.032063)
(0.854467 -0.00748562 0.0295698)
(0.819571 -0.00718323 0.0270407)
(0.787135 -0.00670743 0.0242318)
(0.757305 -0.00603348 0.0211139)
(0.729501 -0.00525678 0.0179384)
(0.703289 -0.00449429 0.0149727)
(0.678605 -0.00381286 0.0123538)
(0.655575 -0.00323236 0.0101003)
(0.634326 -0.00275269 0.00818154)
(0.614895 -0.00236761 0.00656352)
(0.597246 -0.00206692 0.00521891)
(0.581296 -0.00183704 0.00412074)
(0.566938 -0.00166344 0.00323838)
(0.554051 -0.0015325 0.00253929)
(0.542507 -0.00143289 0.00199242)
(0.532174 -0.00135483 0.00157017)
(0.522919 -0.00129196 0.00124625)
(0.514614 -0.00123943 0.000999051)
(0.507144 -0.00119353 0.000811948)
(0.500401 -0.00115179 0.000672288)
(0.494292 -0.0011127 0.000570173)
(0.488732 -0.00107539 0.000497593)
(0.483648 -0.00103938 0.000447967)
(0.478976 -0.00100447 0.000415839)
(0.474664 -0.000970588 0.000396737)
(0.470663 -0.000937749 0.000387051)
(0.466935 -0.000906008 0.000383927)
(0.463446 -0.000875451 0.000385116)
(0.460167 -0.000846065 0.000388875)
(0.963608 -0.00897238 0.0161576)
(0.946257 -0.0199665 0.0308749)
(0.926658 -0.023867 0.0336887)
(0.896748 -0.0240025 0.032029)
(0.860562 -0.0231064 0.0296553)
(0.823741 -0.0217496 0.0271573)
(0.788907 -0.0197641 0.0243061)
(0.756265 -0.0172454 0.0211305)
(0.725308 -0.0145811 0.0179186)
(0.695818 -0.0121193 0.014939)
(0.66797 -0.0100217 0.0123183)
(0.64205 -0.00831315 0.0100713)
(0.618253 -0.00696471 0.00816982)
(0.596629 -0.00593185 0.00658109)
(0.577122 -0.00516334 0.00527375)
(0.559615 -0.00460497 0.0042144)
(0.543957 -0.00420511 0.00336702)
(0.529982 -0.00391885 0.00269599)
(0.517517 -0.00371002 0.0021692)
(0.506391 -0.00355059 0.00175876)
(0.496448 -0.00342124 0.0014415)
(0.487535 -0.00330879 0.00119674)
(0.479516 -0.00320456 0.00100811)
(0.472272 -0.00310327 0.00086341)
(0.4657 -0.0030022 0.000753366)
(0.45971 -0.00290031 0.000670547)
(0.454225 -0.00279764 0.000608887)
(0.449181 -0.00269475 0.00056342)
(0.44452 -0.00259245 0.000530145)
(0.440196 -0.00249156 0.000505869)
(0.436168 -0.00239289 0.000488068)
(0.432402 -0.00229711 0.000474771)
(0.428868 -0.00220494 0.00046438)
(0.964172 -0.0222983 0.0163362)
(0.953011 -0.042996 0.0314378)
(0.933194 -0.0477397 0.0346807)
(0.89563 -0.0468904 0.0333375)
(0.847559 -0.0445053 0.0309884)
(0.797907 -0.0407122 0.0281574)
(0.750829 -0.035532 0.0247891)
(0.707062 -0.0297044 0.0211302)
(0.666427 -0.0241092 0.0175854)
(0.629018 -0.0192892 0.0144344)
(0.595135 -0.0154277 0.0117701)
(0.564932 -0.0124976 0.00957032)
(0.538301 -0.0103721 0.00777528)
(0.514941 -0.00888125 0.00632117)
(0.494475 -0.00785007 0.00514859)
(0.476526 -0.00712619 0.00420437)
(0.460743 -0.00659351 0.00344319)
(0.446818 -0.00617236 0.0028284)
(0.434485 -0.00581259 0.0023313)
(0.423516 -0.00548552 0.0019294)
(0.413718 -0.005176 0.00160493)
(0.404931 -0.00487767 0.00134328)
(0.397015 -0.00458873 0.00113247)
(0.389855 -0.00430943 0.000962774)
(0.383351 -0.00404089 0.00082629)
(0.377421 -0.00378454 0.000716472)
(0.371991 -0.00354164 0.000627955)
(0.367001 -0.00331317 0.00055635)
(0.362398 -0.00309961 0.000498182)
(0.358137 -0.00290097 0.000450645)
(0.354179 -0.002717 0.000411453)
(0.350491 -0.00254727 0.000378743)
(0.347043 -0.00239134 0.000351193)
(0.929129 -0.0157018 0.0162308)
(0.877806 -0.0275845 0.0290361)
(0.809431 -0.0278009 0.0300277)
(0.720606 -0.0242781 0.0269958)
(0.62957 -0.0203129 0.0231726)
(0.549828 -0.0161992 0.0189399)
(0.48464 -0.0120841 0.0145587)
(0.432337 -0.00848384 0.0106081)
(0.390504 -0.00578332 0.00749682)
(0.357185 -0.0040069 0.00527076)
(0.330681 -0.00296251 0.00376683)
(0.309411 -0.0024195 0.00278165)
(0.292016 -0.0021817 0.00213848)
(0.277456 -0.00210093 0.0017015)
(0.264998 -0.00207759 0.0013786)
(0.254153 -0.00205578 0.00111735)
(0.244598 -0.00201188 0.000893819)
(0.236115 -0.00194135 0.000699807)
(0.22855 -0.00184845 0.000533456)
(0.221782 -0.00174024 0.000394249)
(0.215717 -0.0016236 0.000281055)
(0.210271 -0.00150419 0.000191703)
(0.205372 -0.00138622 0.000123217)
(0.200955 -0.00127259 7.22697e-05)
(0.196963 -0.00116523 3.55845e-05)
(0.193346 -0.0010653 1.01e-05)
(0.190057 -0.000973394 -6.77775e-06)
(0.187059 -0.00088968 -1.73178e-05)
(0.184317 -0.000813974 -2.32125e-05)
(0.181799 -0.000745834 -2.57544e-05)
(0.179479 -0.000684733 -2.60098e-05)
(0.177334 -0.000630113 -2.4806e-05)
(0.175344 -0.000581301 -2.26969e-05)
(0.964197 0.0158063 0.0241488)
(0.953042 0.0300046 0.0481221)
(0.933096 0.0325007 0.0555815)
(0.895202 0.0306545 0.0566686)
(0.846763 0.028103 0.0553327)
(0.796876 0.0253091 0.051833)
(0.749735 0.02213 0.0463965)
(0.706069 0.0187588 0.0399147)
(0.665708 0.0155765 0.0333568)
(0.628757 0.0128405 0.0273463)
(0.595493 0.0106129 0.0221632)
(0.566004 0.00884116 0.0178773)
(0.540104 0.00744204 0.014437)
(0.517421 0.0063379 0.0117211)
(0.497532 0.00546255 0.00958361)
(0.480032 0.00476077 0.00788888)
(0.464563 0.00418866 0.00652868)
(0.450821 0.00371338 0.00542375)
(0.438553 0.0033116 0.00451792)
(0.427551 0.00296714 0.00377124)
(0.417645 0.00266862 0.00315448)
(0.408691 0.00240772 0.00264537)
(0.400573 0.00217834 0.00222618)
(0.39319 0.00197592 0.00188222)
(0.386458 0.00179692 0.00160103)
(0.380301 0.00163842 0.00137162)
(0.374656 0.00149798 0.00118461)
(0.369467 0.00137339 0.0010318)
(0.364682 0.0012628 0.000907455)
(0.36026 0.00116447 0.000806752)
(0.35616 0.00107686 0.000724996)
(0.352349 0.000998654 0.000658087)
(0.348795 0.000928691 0.00060282)
(1.00072 0.0222855 0.0241498)
(1.03338 0.0448358 0.0501104)
(1.0649 0.0513848 0.0595712)
(1.08434 0.051913 0.0623419)
(1.09131 0.0513099 0.0632377)
(1.09024 0.0501334 0.0629182)
(1.08466 0.0479905 0.06115)
(1.07606 0.0449545 0.0581217)
(1.06483 0.0414756 0.0543443)
(1.05134 0.0379607 0.0502697)
(1.03617 0.0346168 0.0461603)
(1.01998 0.031509 0.0421425)
(1.0033 0.0286503 0.0382857)
(0.986522 0.0260431 0.0346375)
(0.969921 0.0236845 0.0312309)
(0.953685 0.0215634 0.0280833)
(0.937944 0.0196615 0.0251994)
(0.922788 0.017957 0.0225754)
(0.908273 0.0164279 0.020202)
(0.89443 0.0150541 0.0180663)
(0.881272 0.0138174 0.0161538)
(0.868796 0.0127014 0.0144483)
(0.85699 0.0116924 0.0129332)
(0.845835 0.0107786 0.0115915)
(0.835305 0.00995034 0.0104066)
(0.825371 0.00919915 0.0093624)
(0.816003 0.00851753 0.00844357)
(0.807168 0.00789886 0.00763566)
(0.798833 0.00733712 0.00692567)
(0.790966 0.00682679 0.00630182)
(0.783536 0.00636286 0.00575336)
(0.776514 0.00594081 0.00527059)
(0.769869 0.00555657 0.00484498)
(1.00031 0.0089089 0.0239407)
(1.02724 0.0208484 0.0501184)
(1.05858 0.0259304 0.0594125)
(1.0848 0.0272104 0.0617193)
(1.10325 0.0274377 0.062293)
(1.11568 0.0274508 0.0621325)
(1.12434 0.0270641 0.0609095)
(1.13032 0.0261306 0.0585689)
(1.13382 0.0248025 0.0554657)
(1.13486 0.0233252 0.0520173)
(1.13367 0.0218597 0.0484919)
(1.13061 0.020464 0.0450107)
(1.12607 0.0191471 0.0416253)
(1.1204 0.0179095 0.038371)
(1.11388 0.0167541 0.0352802)
(1.10671 0.0156827 0.0323773)
(1.09907 0.0146935 0.0296756)
(1.09112 0.0137817 0.0271784)
(1.08297 0.0129411 0.0248825)
(1.07474 0.0121649 0.0227809)
(1.06651 0.0114465 0.0208646)
(1.05834 0.0107796 0.0191229)
(1.05029 0.0101593 0.0175443)
(1.04239 0.00958171 0.016117)
(1.03467 0.00904361 0.0148294)
(1.02716 0.00854219 0.0136699)
(1.01986 0.00807496 0.012627)
(1.0128 0.00763961 0.0116896)
(1.00596 0.00723392 0.0108472)
(0.999363 0.00685578 0.0100899)
(0.992995 0.00650325 0.00940868)
(0.986856 0.00617454 0.00879525)
(0.98094 0.00586796 0.00824195)
(1.00037 0.00247893 0.0238698)
(1.02413 0.00620497 0.0501093)
(1.05253 0.0080731 0.0593782)
(1.07762 0.00868941 0.061474)
(1.09664 0.00886838 0.0617632)
(1.11058 0.00897298 0.061419)
(1.12125 0.00897968 0.0601396)
(1.12974 0.0088164 0.0577993)
(1.1363 0.00850554 0.0546984)
(1.14092 0.0081216 0.0512543)
(1.14367 0.00772237 0.0477562)
(1.14478 0.00733118 0.0443339)
(1.14453 0.00695229 0.0410321)
(1.1432 0.00658643 0.037875)
(1.14101 0.0062357 0.0348887)
(1.13811 0.00590237 0.0320958)
(1.13464 0.00558753 0.0295085)
(1.13071 0.00529107 0.0271285)
(1.12644 0.00501217 0.0249501)
(1.1219 0.0047497 0.0229642)
(1.11715 0.00450184 0.0211591)
(1.11228 0.00426746 0.0195221)
(1.10731 0.00404588 0.0180409)
(1.1023 0.00383655 0.0167028)
(1.09727 0.00363902 0.0154958)
(1.09226 0.00345288 0.0144078)
(1.08729 0.00327776 0.0134275)
(1.08237 0.00311326 0.0125443)
(1.07752 0.00295891 0.0117481)
(1.07274 0.00281425 0.0110297)
(1.06805 0.00267876 0.0103808)
(1.06346 0.00255197 0.00979357)
(1.05896 0.00243338 0.00926123)
(1.00037 -0.00247893 0.0238698)
(1.02413 -0.00620497 0.0501093)
(1.05253 -0.0080731 0.0593782)
(1.07762 -0.00868941 0.061474)
(1.09664 -0.00886838 0.0617632)
(1.11058 -0.00897298 0.061419)
(1.12125 -0.00897968 0.0601396)
(1.12974 -0.0088164 0.0577993)
(1.1363 -0.00850554 0.0546984)
(1.14092 -0.0081216 0.0512543)
(1.14367 -0.00772237 0.0477562)
(1.14478 -0.00733118 0.0443339)
(1.14453 -0.00695229 0.0410321)
(1.1432 -0.00658643 0.037875)
(1.14101 -0.0062357 0.0348887)
(1.13811 -0.00590237 0.0320958)
(1.13464 -0.00558753 0.0295085)
(1.13071 -0.00529107 0.0271285)
(1.12644 -0.00501217 0.0249501)
(1.1219 -0.0047497 0.0229642)
(1.11715 -0.00450184 0.0211591)
(1.11228 -0.00426746 0.0195221)
(1.10731 -0.00404588 0.0180409)
(1.1023 -0.00383655 0.0167028)
(1.09727 -0.00363902 0.0154958)
(1.09226 -0.00345288 0.0144078)
(1.08729 -0.00327776 0.0134275)
(1.08237 -0.00311326 0.0125443)
(1.07752 -0.00295891 0.0117481)
(1.07274 -0.00281425 0.0110297)
(1.06805 -0.00267876 0.0103808)
(1.06346 -0.00255197 0.00979357)
(1.05896 -0.00243338 0.00926123)
(1.00031 -0.0089089 0.0239407)
(1.02724 -0.0208484 0.0501184)
(1.05858 -0.0259304 0.0594125)
(1.0848 -0.0272104 0.0617193)
(1.10325 -0.0274377 0.062293)
(1.11568 -0.0274508 0.0621325)
(1.12434 -0.0270641 0.0609095)
(1.13032 -0.0261306 0.0585689)
(1.13382 -0.0248025 0.0554657)
(1.13486 -0.0233252 0.0520173)
(1.13367 -0.0218597 0.0484919)
(1.13061 -0.020464 0.0450107)
(1.12607 -0.0191471 0.0416253)
(1.1204 -0.0179095 0.038371)
(1.11388 -0.0167541 0.0352802)
(1.10671 -0.0156827 0.0323773)
(1.09907 -0.0146935 0.0296756)
(1.09112 -0.0137817 0.0271784)
(1.08297 -0.0129411 0.0248825)
(1.07474 -0.0121649 0.0227809)
(1.06651 -0.0114465 0.0208646)
(1.05834 -0.0107796 0.0191229)
(1.05029 -0.0101593 0.0175443)
(1.04239 -0.00958171 0.016117)
(1.03467 -0.00904361 0.0148294)
(1.02716 -0.00854219 0.0136699)
(1.01986 -0.00807496 0.012627)
(1.0128 -0.00763961 0.0116896)
(1.00596 -0.00723392 0.0108472)
(0.999363 -0.00685578 0.0100899)
(0.992995 -0.00650325 0.00940868)
(0.986856 -0.00617454 0.00879525)
(0.98094 -0.00586796 0.00824195)
(1.00072 -0.0222855 0.0241498)
(1.03338 -0.0448358 0.0501104)
(1.0649 -0.0513848 0.0595712)
(1.08434 -0.051913 0.0623419)
(1.09131 -0.0513099 0.0632377)
(1.09024 -0.0501334 0.0629182)
(1.08466 -0.0479905 0.06115)
(1.07606 -0.0449545 0.0581217)
(1.06483 -0.0414756 0.0543443)
(1.05134 -0.0379607 0.0502697)
(1.03617 -0.0346168 0.0461603)
(1.01998 -0.031509 0.0421425)
(1.0033 -0.0286503 0.0382857)
(0.986522 -0.0260431 0.0346375)
(0.969921 -0.0236845 0.0312309)
(0.953685 -0.0215634 0.0280833)
(0.937944 -0.0196615 0.0251994)
(0.922788 -0.017957 0.0225754)
(0.908273 -0.0164279 0.020202)
(0.89443 -0.0150541 0.0180663)
(0.881272 -0.0138174 0.0161538)
(0.868796 -0.0127014 0.0144483)
(0.85699 -0.0116924 0.0129332)
(0.845835 -0.0107786 0.0115915)
(0.835305 -0.00995034 0.0104066)
(0.825371 -0.00919915 0.0093624)
(0.816003 -0.00851753 0.00844357)
(0.807168 -0.00789886 0.00763566)
(0.798833 -0.00733712 0.00692567)
(0.790966 -0.00682679 0.00630182)
(0.783536 -0.00636286 0.00575336)
(0.776514 -0.00594081 0.00527059)
(0.769869 -0.00555657 0.00484498)
(0.964197 -0.0158063 0.0241488)
(0.953042 -0.0300046 0.0481221)
(0.933096 -0.0325007 0.0555815)
(0.895202 -0.0306545 0.0566686)
(0.846763 -0.028103 0.0553327)
(0.796876 -0.0253091 0.051833)
(0.749735 -0.02213 0.0463965)
(0.706069 -0.0187588 0.0399147)
(0.665708 -0.0155765 0.0333568)
(0.628757 -0.0128405 0.0273463)
(0.595493 -0.0106129 0.0221632)
(0.566004 -0.00884116 0.0178773)
(0.540104 -0.00744204 0.014437)
(0.517421 -0.0063379 0.0117211)
(0.497532 -0.00546255 0.00958361)
(0.480032 -0.00476077 0.00788888)
(0.464563 -0.00418866 0.00652868)
(0.450821 -0.00371338 0.00542375)
(0.438553 -0.0033116 0.00451792)
(0.427551 -0.00296714 0.00377124)
(0.417645 -0.00266862 0.00315448)
(0.408691 -0.00240772 0.00264537)
(0.400573 -0.00217834 0.00222618)
(0.39319 -0.00197592 0.00188222)
(0.386458 -0.00179692 0.00160103)
(0.380301 -0.00163842 0.00137162)
(0.374656 -0.00149798 0.00118461)
(0.369467 -0.00137339 0.0010318)
(0.364682 -0.0012628 0.000907455)
(0.36026 -0.00116447 0.000806752)
(0.35616 -0.00107686 0.000724996)
(0.352349 -0.000998654 0.000658087)
(0.348795 -0.000928691 0.00060282)
(0.963617 0.015631 0.0123112)
(0.945918 0.0294449 0.0292411)
(0.925771 0.0315173 0.0378617)
(0.8952 0.0293534 0.0411885)
(0.858543 0.0267809 0.0419956)
(0.821676 0.0243272 0.0411506)
(0.787166 0.0216732 0.0388023)
(0.755053 0.0187894 0.0352731)
(0.724742 0.0159334 0.0311098)
(0.696021 0.013347 0.0268146)
(0.669075 0.011126 0.0227158)
(0.644159 0.00925887 0.0189883)
(0.621398 0.00770137 0.0157096)
(0.600773 0.0064138 0.0128968)
(0.582176 0.00536293 0.0105276)
(0.56546 0.00451569 0.0085585)
(0.550453 0.00383778 0.00693791)
(0.536983 0.00329627 0.0056139)
(0.52488 0.00286245 0.0045382)
(0.513984 0.00251293 0.00366793)
(0.504152 0.00222923 0.00296613)
(0.495257 0.00199688 0.00240196)
(0.487185 0.00180459 0.00194996)
(0.479839 0.00164365 0.00158942)
(0.473132 0.00150731 0.00130365)
(0.46699 0.00139077 0.00107822)
(0.461348 0.00129008 0.00090207)
(0.456147 0.00120278 0.000761537)
(0.451342 0.00112635 0.000650584)
(0.446886 0.00105833 0.000565176)
(0.442742 0.000997174 0.000500605)
(0.438874 0.000941877 0.000452345)
(0.435256 0.000891706 0.000416714)
(1.00029 0.0220801 0.0122733)
(1.02688 0.0448246 0.0304359)
(1.05784 0.0511835 0.0406846)
(1.08379 0.051228 0.045822)
(1.10223 0.05029 0.0486543)
(1.11494 0.0492536 0.0502622)
(1.12415 0.0476238 0.0507189)
(1.13082 0.0452261 0.0500502)
(1.13506 0.0423481 0.0485063)
(1.13686 0.0393514 0.046414)
(1.13642 0.0364429 0.0440276)
(1.13409 0.0336842 0.0415011)
(1.13026 0.0310799 0.0389245)
(1.12525 0.0286328 0.036358)
(1.11931 0.0263527 0.0338464)
(1.11267 0.0242471 0.031423)
(1.1055 0.0223158 0.0291108)
(1.09796 0.0205515 0.026924)
(1.09017 0.0189432 0.0248704)
(1.08225 0.0174786 0.0229532)
(1.07428 0.0161458 0.0211723)
(1.06633 0.0149333 0.0195252)
(1.05848 0.01383 0.0180076)
(1.05075 0.0128261 0.0166137)
(1.04318 0.0119124 0.015337)
(1.03581 0.0110809 0.0141703)
(1.02865 0.0103238 0.0131065)
(1.02172 0.00963421 0.0121376)
(1.01501 0.00900536 0.0112562)
(1.00853 0.00843093 0.0104554)
(1.00229 0.00790552 0.00972835)
(0.996282 0.00742438 0.00906847)
(0.990496 0.00698329 0.00846957)
(0.999871 0.00875493 0.0121182)
(1.02068 0.0206667 0.0303127)
(1.05131 0.0256269 0.0405007)
(1.0838 0.0266665 0.045432)
(1.11332 0.0266998 0.0481021)
(1.13903 0.0267415 0.0497984)
(1.16183 0.0265915 0.0505996)
(1.18245 0.0259818 0.050416)
(1.20099 0.0249678 0.0493982)
(1.21728 0.0237705 0.0478426)
(1.23125 0.0225607 0.0460067)
(1.24302 0.0214026 0.0440428)
(1.2528 0.0202995 0.0420263)
(1.26084 0.0192452 0.0400002)
(1.26734 0.0182414 0.0379981)
(1.27248 0.017294 0.0360482)
(1.27641 0.0164059 0.0341703)
(1.27929 0.0155762 0.0323762)
(1.28125 0.0148008 0.0306711)
(1.28239 0.0140751 0.0290564)
(1.28285 0.0133946 0.0275315)
(1.2827 0.0127551 0.0260949)
(1.28205 0.0121534 0.0247441)
(1.28097 0.0115867 0.0234756)
(1.27952 0.0110524 0.0222853)
(1.27776 0.0105481 0.021169)
(1.27575 0.0100718 0.0201226)
(1.27353 0.00962188 0.0191419)
(1.27113 0.00919639 0.0182227)
(1.2686 0.00879366 0.017361)
(1.26596 0.00841225 0.016553)
(1.26323 0.00805086 0.0157952)
(1.26043 0.00770836 0.015084)
(0.999937 0.00243752 0.0120548)
(1.01757 0.00614911 0.0302181)
(1.0452 0.0080034 0.0403931)
(1.07655 0.0085693 0.0452149)
(1.10663 0.00870387 0.0477376)
(1.13379 0.00881527 0.0493227)
(1.15843 0.00888813 0.050074)
(1.18125 0.00882176 0.0498669)
(1.20246 0.00861006 0.0488195)
(1.2219 0.00831917 0.047229)
(1.2394 0.00801028 0.0453727)
(1.25498 0.00770879 0.0434172)
(1.26878 0.00741608 0.0414405)
(1.28099 0.00712863 0.0394811)
(1.29178 0.00684637 0.0375687)
(1.30129 0.00657176 0.0357291)
(1.30964 0.00630705 0.0339803)
(1.31694 0.00605307 0.0323311)
(1.32329 0.00580964 0.0307831)
(1.3288 0.00557619 0.0293338)
(1.33354 0.00535208 0.0279797)
(1.33759 0.00513688 0.0267162)
(1.34104 0.00493038 0.025538)
(1.34394 0.00473233 0.0244389)
(1.34635 0.00454236 0.0234128)
(1.34832 0.00436013 0.0224534)
(1.34989 0.00418543 0.0215546)
(1.35112 0.00401807 0.0207111)
(1.35203 0.00385787 0.0199179)
(1.35265 0.00370463 0.0191707)
(1.35302 0.00355815 0.0184656)
(1.35317 0.00341823 0.0177991)
(1.35311 0.00328469 0.0171683)
(0.999937 -0.00243752 0.0120548)
(1.01757 -0.00614911 0.0302181)
(1.0452 -0.0080034 0.0403931)
(1.07655 -0.0085693 0.0452149)
(1.10663 -0.00870387 0.0477376)
(1.13379 -0.00881527 0.0493227)
(1.15843 -0.00888813 0.050074)
(1.18125 -0.00882176 0.0498669)
(1.20246 -0.00861006 0.0488195)
(1.2219 -0.00831917 0.047229)
(1.2394 -0.00801028 0.0453727)
(1.25498 -0.00770879 0.0434172)
(1.26878 -0.00741608 0.0414405)
(1.28099 -0.00712863 0.0394811)
(1.29178 -0.00684637 0.0375687)
(1.30129 -0.00657176 0.0357291)
(1.30964 -0.00630705 0.0339803)
(1.31694 -0.00605307 0.0323311)
(1.32329 -0.00580964 0.0307831)
(1.3288 -0.00557619 0.0293338)
(1.33354 -0.00535208 0.0279797)
(1.33759 -0.00513688 0.0267162)
(1.34104 -0.00493038 0.025538)
(1.34394 -0.00473233 0.0244389)
(1.34635 -0.00454236 0.0234128)
(1.34832 -0.00436013 0.0224534)
(1.34989 -0.00418543 0.0215546)
(1.35112 -0.00401807 0.0207111)
(1.35203 -0.00385787 0.0199179)
(1.35265 -0.00370463 0.0191707)
(1.35302 -0.00355815 0.0184656)
(1.35317 -0.00341823 0.0177991)
(1.35311 -0.00328469 0.0171683)
(0.999871 -0.00875493 0.0121182)
(1.02068 -0.0206667 0.0303127)
(1.05131 -0.0256269 0.0405007)
(1.0838 -0.0266665 0.045432)
(1.11332 -0.0266998 0.0481021)
(1.13903 -0.0267415 0.0497984)
(1.16183 -0.0265915 0.0505996)
(1.18245 -0.0259818 0.050416)
(1.20099 -0.0249678 0.0493982)
(1.21728 -0.0237705 0.0478426)
(1.23125 -0.0225607 0.0460067)
(1.24302 -0.0214026 0.0440428)
(1.2528 -0.0202995 0.0420263)
(1.26084 -0.0192452 0.0400002)
(1.26734 -0.0182414 0.0379981)
(1.27248 -0.017294 0.0360482)
(1.27641 -0.0164059 0.0341703)
(1.27929 -0.0155762 0.0323762)
(1.28125 -0.0148008 0.0306711)
(1.28239 -0.0140751 0.0290564)
(1.28285 -0.0133946 0.0275315)
(1.2827 -0.0127551 0.0260949)
(1.28205 -0.0121534 0.0247441)
(1.28097 -0.0115867 0.0234756)
(1.27952 -0.0110524 0.0222853)
(1.27776 -0.0105481 0.021169)
(1.27575 -0.0100718 0.0201226)
(1.27353 -0.00962188 0.0191419)
(1.27113 -0.00919639 0.0182227)
(1.2686 -0.00879366 0.017361)
(1.26596 -0.00841225 0.016553)
(1.26323 -0.00805086 0.0157952)
(1.26043 -0.00770836 0.015084)
(1.00029 -0.0220801 0.0122733)
(1.02688 -0.0448246 0.0304359)
(1.05784 -0.0511835 0.0406846)
(1.08379 -0.051228 0.045822)
(1.10223 -0.05029 0.0486543)
(1.11494 -0.0492536 0.0502622)
(1.12415 -0.0476238 0.0507189)
(1.13082 -0.0452261 0.0500502)
(1.13506 -0.0423481 0.0485063)
(1.13686 -0.0393514 0.046414)
(1.13642 -0.0364429 0.0440276)
(1.13409 -0.0336842 0.0415011)
(1.13026 -0.0310799 0.0389245)
(1.12525 -0.0286328 0.036358)
(1.11931 -0.0263527 0.0338464)
(1.11267 -0.0242471 0.031423)
(1.1055 -0.0223158 0.0291108)
(1.09796 -0.0205515 0.026924)
(1.09017 -0.0189432 0.0248704)
(1.08225 -0.0174786 0.0229532)
(1.07428 -0.0161458 0.0211723)
(1.06633 -0.0149333 0.0195252)
(1.05848 -0.01383 0.0180076)
(1.05075 -0.0128261 0.0166137)
(1.04318 -0.0119124 0.015337)
(1.03581 -0.0110809 0.0141703)
(1.02865 -0.0103238 0.0131065)
(1.02172 -0.00963421 0.0121376)
(1.01501 -0.00900536 0.0112562)
(1.00853 -0.00843093 0.0104554)
(1.00229 -0.00790552 0.00972835)
(0.996282 -0.00742438 0.00906847)
(0.990496 -0.00698329 0.00846957)
(0.963617 -0.015631 0.0123112)
(0.945918 -0.0294449 0.0292411)
(0.925771 -0.0315173 0.0378617)
(0.8952 -0.0293534 0.0411885)
(0.858543 -0.0267809 0.0419956)
(0.821676 -0.0243272 0.0411506)
(0.787166 -0.0216732 0.0388023)
(0.755053 -0.0187894 0.0352731)
(0.724742 -0.0159334 0.0311098)
(0.696021 -0.013347 0.0268146)
(0.669075 -0.011126 0.0227158)
(0.644159 -0.00925887 0.0189883)
(0.621398 -0.00770137 0.0157096)
(0.600773 -0.0064138 0.0128968)
(0.582176 -0.00536293 0.0105276)
(0.56546 -0.00451569 0.0085585)
(0.550453 -0.00383778 0.00693791)
(0.536983 -0.00329627 0.0056139)
(0.52488 -0.00286245 0.0045382)
(0.513984 -0.00251293 0.00366793)
(0.504152 -0.00222923 0.00296613)
(0.495257 -0.00199688 0.00240196)
(0.487185 -0.00180459 0.00194996)
(0.479839 -0.00164365 0.00158942)
(0.473132 -0.00150731 0.00130365)
(0.46699 -0.00139077 0.00107822)
(0.461348 -0.00129008 0.00090207)
(0.456147 -0.00120278 0.000761537)
(0.451342 -0.00112635 0.000650584)
(0.446886 -0.00105833 0.000565176)
(0.442742 -0.000997174 0.000500605)
(0.438874 -0.000941877 0.000452345)
(0.435256 -0.000891706 0.000416714)
(0.96361 0.0156638 0.00751885)
(0.94158 0.0296577 0.0197045)
(0.916972 0.0317335 0.0277223)
(0.884023 0.0294346 0.0319075)
(0.8473 0.0267027 0.0336043)
(0.811879 0.0241772 0.0337521)
(0.779759 0.0215399 0.0327038)
(0.750745 0.0187032 0.0306543)
(0.72406 0.0158777 0.0278926)
(0.69923 0.0132937 0.0247628)
(0.676157 0.011054 0.0215551)
(0.654887 0.00915328 0.0184642)
(0.635434 0.00754842 0.0156042)
(0.617742 0.00620112 0.0130334)
(0.601717 0.00508347 0.0107724)
(0.587243 0.00417017 0.00881704)
(0.574197 0.00343371 0.00714791)
(0.562451 0.00284538 0.00573814)
(0.551877 0.00237822 0.00455788)
(0.54235 0.00200875 0.00357748)
(0.533757 0.00171747 0.00276893)
(0.52599 0.00148811 0.00210731)
(0.518957 0.00130734 0.00157067)
(0.512569 0.00116388 0.00113936)
(0.506748 0.00104855 0.000795963)
(0.501426 0.000955312 0.000525211)
(0.496542 0.000878404 0.000313266)
(0.492041 0.000817942 0.000155478)
(0.487884 0.000770158 4.11443e-05)
(0.484034 0.000730639 -4.061e-05)
(0.480454 0.000696787 -9.71475e-05)
(0.477115 0.000667169 -0.000133586)
(0.473991 0.000640814 -0.000154064)
(1.00036 0.0220157 0.00753557)
(1.0229 0.0448617 0.0204488)
(1.04951 0.0512295 0.0295998)
(1.07291 0.0510656 0.0352909)
(1.09085 0.0498109 0.0387112)
(1.10451 0.0485363 0.0408007)
(1.11559 0.0467974 0.0419184)
(1.12491 0.0443578 0.0421625)
(1.13258 0.0414415 0.0416543)
(1.13851 0.0383977 0.0405866)
(1.14274 0.0354493 0.0391529)
(1.14544 0.0326693 0.0374977)
(1.14685 0.0300602 0.035714)
(1.14716 0.0276168 0.0338627)
(1.14657 0.0253441 0.0319877)
(1.1452 0.0232491 0.030123)
(1.1432 0.0213329 0.0282945)
(1.14067 0.0195892 0.0265214)
(1.13771 0.0180071 0.0248174)
(1.1344 0.0165739 0.0231916)
(1.13083 0.0152768 0.02165)
(1.12707 0.014104 0.0201957)
(1.12316 0.0130435 0.0188298)
(1.11915 0.0120848 0.0175522)
(1.1151 0.011217 0.0163616)
(1.11102 0.0104317 0.015256)
(1.10695 0.0097194 0.0142325)
(1.10291 0.00907503 0.013288)
(1.09892 0.0084914 0.012419)
(1.09499 0.00796109 0.0116205)
(1.09113 0.00747798 0.0108879)
(1.08736 0.00703693 0.0102164)
(1.08367 0.0066335 0.00960135)
(0.999939 0.00869061 0.00748393)
(1.01669 0.0205622 0.0204648)
(1.04292 0.0254899 0.0297095)
(1.07287 0.0263895 0.0354057)
(1.10194 0.0262398 0.0388241)
(1.12861 0.0261346 0.0410026)
(1.15315 0.0259025 0.0423519)
(1.17615 0.025238 0.0429476)
(1.19771 0.0241565 0.0428646)
(1.21768 0.0228731 0.0422661)
(1.23586 0.0215761 0.041337)
(1.25225 0.0203459 0.0402159)
(1.26694 0.0191912 0.0389846)
(1.28009 0.0181041 0.0376882)
(1.29185 0.0170836 0.0363568)
(1.30234 0.0161346 0.0350145)
(1.31167 0.01526 0.0336811)
(1.31994 0.0144575 0.0323708)
(1.32725 0.0137213 0.0310932)
(1.3337 0.0130443 0.0298541)
(1.33937 0.0124199 0.0286575)
(1.34434 0.0118423 0.0275057)
(1.34869 0.0113064 0.0264002)
(1.35247 0.0108082 0.0253414)
(1.35576 0.0103433 0.0243291)
(1.35859 0.00990843 0.0233627)
(1.36103 0.00949991 0.0224414)
(1.3631 0.00911515 0.021564)
(1.36486 0.00875181 0.0207293)
(1.36633 0.00840767 0.0199357)
(1.36754 0.00808099 0.0191815)
(1.36852 0.00777034 0.0184647)
(1.36929 0.00747457 0.0177837)
(1.00001 0.00241544 0.00745426)
(1.01357 0.00610524 0.020429)
(1.03676 0.00795227 0.0297065)
(1.06552 0.00848131 0.0353868)
(1.09518 0.008568 0.0387574)
(1.12332 0.00863765 0.0408861)
(1.14971 0.00868451 0.0422057)
(1.17486 0.00859805 0.0427868)
(1.19899 0.00836078 0.0426918)
(1.22195 0.00803746 0.0420822)
(1.24348 0.00769573 0.0411522)
(1.26345 0.00736717 0.040051)
(1.28191 0.00705537 0.038865)
(1.29895 0.00675618 0.0376386)
(1.31471 0.00646829 0.036399)
(1.32929 0.00619359 0.0351679)
(1.34277 0.00593402 0.0339629)
(1.35522 0.00569 0.032796)
(1.36673 0.00546062 0.0316738)
(1.37737 0.00524452 0.0305994)
(1.38721 0.00504044 0.0295737)
(1.39633 0.00484742 0.0285966)
(1.40477 0.00466465 0.0276672)
(1.4126 0.00449143 0.0267837)
(1.41986 0.00432702 0.0259443)