/*--------------------------------*- C++ -*----------------------------------*\
| =========                 |                                                 |
| \\      /  F ield         | OpenFOAM: The Open Source CFD Toolbox           |
|  \\    /   O peration     | Version:  2412                                  |
|   \\  /    A nd           | Website:  www.openfoam.com                      |
|    \\/     M anipulation  |                                                 |
\*---------------------------------------------------------------------------*/
FoamFile
{
    version     2.0;
    format      ascii;
    arch        "LSB;label=32;scalar=64";
    class       volScalarField;
    location    "4.0040539";
    object      p;
}
// * * * * * * * * * * * * * * * * * * * * * * * * * * * * * * * * * * * * * //

dimensions      [0 2 -2 0 0 0 0];

internalField   nonuniform List<scalar> 
16000
(
1.6313
1.53665
1.46033
1.40935
1.37057
1.33459
1.29944
1.26589
1.23454
1.20535
1.17796
1.15207
1.12743
1.10389
1.08135
1.05971
1.03892
1.0189
0.999586
0.98092
0.962842
0.945295
0.92823
0.911598
0.895358
0.879472
0.863907
0.848632
0.833622
0.818854
0.804306
0.789962
0.775806
1.57952
1.51162
1.44875
1.40159
1.36457
1.33067
1.29737
1.26492
1.23405
1.20499
1.17759
1.15161
1.12687
1.10326
1.08067
1.05902
1.03824
1.01826
0.998989
0.980373
0.962346
0.94485
0.927831
0.911243
0.895042
0.879191
0.863657
0.848409
0.833423
0.818675
0.804145
0.789817
0.775674
1.55818
1.50031
1.44485
1.40078
1.36465
1.33135
1.29865
1.26654
1.23567
1.2064
1.17875
1.15253
1.1276
1.10382
1.08111
1.05936
1.0385
1.01845
0.999131
0.980471
0.962408
0.944881
0.927838
0.91123
0.895013
0.879149
0.863604
0.848349
0.833356
0.818604
0.804071
0.78974
0.775595
1.54947
1.49479
1.4424
1.39992
1.36427
1.33119
1.29875
1.26688
1.23613
1.20686
1.17915
1.15287
1.12788
1.10405
1.08129
1.05951
1.03862
1.01855
0.99921
0.980538
0.962464
0.944929
0.927879
0.911264
0.895041
0.879171
0.863621
0.84836
0.833363
0.818605
0.804068
0.789733
0.775584
1.54947
1.49479
1.4424
1.39992
1.36427
1.33119
1.29875
1.26688
1.23613
1.20686
1.17915
1.15287
1.12788
1.10405
1.08129
1.05951
1.03862
1.01855
0.99921
0.980538
0.962464
0.944929
0.927879
0.911264
0.895041
0.879171
0.863621
0.84836
0.833363
0.818605
0.804068
0.789733
0.775584
1.55818
1.50031
1.44485
1.40078
1.36465
1.33135
1.29865
1.26654
1.23567
1.2064
1.17875
1.15253
1.1276
1.10382
1.08111
1.05936
1.0385
1.01845
0.999131
0.980471
0.962408
0.944881
0.927838
0.91123
0.895013
0.879149
0.863604
0.848349
0.833356
0.818604
0.804071
0.78974
0.775595
1.57952
1.51162
1.44875
1.40159
1.36457
1.33067
1.29737
1.26492
1.23405
1.20499
1.17759
1.15161
1.12687
1.10326
1.08067
1.05902
1.03824
1.01826
0.998989
0.980373
0.962346
0.94485
0.927831
0.911243
0.895042
0.879191
0.863657
0.848409
0.833423
0.818675
0.804145
0.789817
0.775674
1.6313
1.53665
1.46033
1.40935
1.37057
1.33459
1.29944
1.26589
1.23454
1.20535
1.17796
1.15207
1.12743
1.10389
1.08135
1.05971
1.03892
1.0189
0.999586
0.98092
0.962842
0.945295
0.92823
0.911598
0.895358
0.879472
0.863907
0.848632
0.833622
0.818854
0.804306
0.789962
0.775806
1.57743
1.50956
1.44687
1.40009
1.36349
1.32995
1.29691
1.26468
1.23401
1.20513
1.17787
1.152
1.12734
1.10377
1.08121
1.05958
1.0388
1.0188
0.999511
0.980865
0.962804
0.945271
0.928216
0.911591
0.895356
0.879473
0.86391
0.848636
0.833626
0.818857
0.804309
0.789964
0.775808
1.52637
1.48585
1.43809
1.39565
1.35985
1.32725
1.29539
1.264
1.23369
1.20488
1.17762
1.15175
1.12711
1.10357
1.08103
1.05942
1.03866
1.01868
0.999411
0.980783
0.962737
0.945218
0.928175
0.91156
0.895333
0.879457
0.863899
0.848629
0.833622
0.818855
0.804309
0.789966
0.77581
1.50518
1.47459
1.43476
1.3957
1.36061
1.32827
1.29689
1.26594
1.23577
1.20684
1.17936
1.15325
1.12841
1.10468
1.08199
1.06024
1.03936
1.01928
0.999923
0.981222
0.963115
0.945544
0.928456
0.911802
0.895541
0.879635
0.86405
0.848756
0.833729
0.818944
0.804381
0.790024
0.775855
1.4965
1.46906
1.43246
1.39517
1.36059
1.32835
1.29716
1.26646
1.23644
1.20753
1.17998
1.1538
1.12889
1.10511
1.08236
1.06057
1.03966
1.01954
1.00016
0.981432
0.963306
0.94572
0.928619
0.911954
0.895682
0.879764
0.864169
0.848865
0.833828
0.819033
0.804462
0.790096
0.775919
1.4965
1.46906
1.43246
1.39517
1.36059
1.32835
1.29716
1.26646
1.23644
1.20753
1.17998
1.1538
1.12889
1.10511
1.08236
1.06057
1.03966
1.01954
1.00016
0.981432
0.963306
0.94572
0.928619
0.911954
0.895682
0.879764
0.864169
0.848865
0.833828
0.819033
0.804462
0.790096
0.775919
1.50518
1.47459
1.43476
1.3957
1.36061
1.32827
1.29689
1.26594
1.23577
1.20684
1.17936
1.15325
1.12841
1.10468
1.08199
1.06024
1.03936
1.01928
0.999923
0.981222
0.963115
0.945544
0.928456
0.911802
0.895541
0.879635
0.86405
0.848756
0.833729
0.818944
0.804381
0.790024
0.775855
1.52637
1.48585
1.43809
1.39565
1.35985
1.32725
1.29539
1.264
1.23369
1.20488
1.17762
1.15175
1.12711
1.10357
1.08103
1.05942
1.03866
1.01868
0.999411
0.980783
0.962737
0.945218
0.928175
0.91156
0.895333
0.879457
0.863899
0.848629
0.833622
0.818855
0.804309
0.789966
0.77581
1.57743
1.50956
1.44687
1.40009
1.36349
1.32995
1.29691
1.26468
1.23401
1.20513
1.17787
1.152
1.12734
1.10377
1.08121
1.05958
1.0388
1.0188
0.999511
0.980865
0.962804
0.945271
0.928216
0.911591
0.895356
0.879473
0.86391
0.848636
0.833626
0.818857
0.804309
0.789964
0.775808
1.5509
1.49347
1.43888
1.39604
1.36123
1.32904
1.2972
1.26579
1.23553
1.20676
1.17947
1.1535
1.12873
1.10506
1.08239
1.06066
1.03979
1.0197
1.00033
0.981607
0.963475
0.945876
0.92876
0.91208
0.895795
0.879867
0.864264
0.848954
0.833912
0.819114
0.80454
0.790173
0.775996
1.49998
1.46981
1.43068
1.39248
1.35827
1.32667
1.29587
1.26539
1.23562
1.20702
1.17978
1.15385
1.12911
1.10545
1.08278
1.06103
1.04014
1.02003
1.00063
0.981887
0.963734
0.946116
0.928981
0.912284
0.895982
0.880039
0.86442
0.849097
0.834043
0.819234
0.804651
0.790274
0.77609
1.47914
1.45889
1.42793
1.39326
1.35965
1.32809
1.29767
1.26771
1.23824
1.20964
1.18224
1.15609
1.13115
1.10729
1.08444
1.06251
1.04144
1.02117
1.00164
0.982766
0.964502
0.946787
0.929568
0.912796
0.896429
0.880427
0.864758
0.84939
0.834296
0.819454
0.804841
0.790439
0.776231
1.47059
1.45347
1.4258
1.39295
1.35984
1.32831
1.29804
1.26835
1.23908
1.21055
1.1831
1.15689
1.13188
1.10797
1.08506
1.06308
1.04196
1.02164
1.00206
0.983153
0.964856
0.94711
0.929863
0.913066
0.896676
0.880654
0.864966
0.849581
0.834471
0.819614
0.804987
0.790573
0.776354
1.47059
1.45347
1.4258
1.39295
1.35984
1.32831
1.29804
1.26835
1.23908
1.21055
1.1831
1.15689
1.13188
1.10797
1.08506
1.06308
1.04196
1.02164
1.00206
0.983153
0.964856
0.94711
0.929863
0.913066
0.896676
0.880654
0.864966
0.849581
0.834471
0.819614
0.804987
0.790573
0.776354
1.47914
1.45889
1.42793
1.39326
1.35965
1.32809
1.29767
1.26771
1.23824
1.20964
1.18224
1.15609
1.13115
1.10729
1.08444
1.06251
1.04144
1.02117
1.00164
0.982766
0.964502
0.946787
0.929568
0.912796
0.896429
0.880427
0.864758
0.84939
0.834296
0.819454
0.804841
0.790439
0.776231
1.49998
1.46981
1.43068
1.39248
1.35827
1.32667
1.29587
1.26539
1.23562
1.20702
1.17978
1.15385
1.12911
1.10545
1.08278
1.06103
1.04014
1.02003
1.00063
0.981887
0.963734
0.946116
0.928981
0.912284
0.895982
0.880039
0.86442
0.849097
0.834043
0.819234
0.804651
0.790274
0.77609
1.5509
1.49347
1.43888
1.39604
1.36123
1.32904
1.2972
1.26579
1.23553
1.20676
1.17947
1.1535
1.12873
1.10506
1.08239
1.06066
1.03979
1.0197
1.00033
0.981607
0.963475
0.945876
0.92876
0.91208
0.895795
0.879867
0.864264
0.848954
0.833912
0.819114
0.80454
0.790173
0.775996
1.53434
1.48099
1.43091
1.39124
1.35822
1.32721
1.29635
1.26576
1.23606
1.20763
1.18052
1.15464
1.1299
1.10621
1.08351
1.06174
1.04082
1.02068
1.00126
0.982484
0.964302
0.946655
0.929492
0.912767
0.896437
0.880466
0.864822
0.849477
0.834401
0.81957
0.804965
0.790569
0.776364
1.48341
1.45725
1.42277
1.38793
1.35558
1.32508
1.2952
1.26552
1.23636
1.20814
1.18109
1.15525
1.13053
1.10686
1.08416
1.06236
1.04141
1.02124
1.00178
0.982969
0.96475
0.947068
0.929872
0.913116
0.896758
0.880761
0.865092
0.849721
0.834622
0.819771
0.805149
0.790737
0.776518
1.4627
1.44643
1.4202
1.38897
1.35722
1.32669
1.29714
1.268
1.2392
1.21105
1.18387
1.15782
1.1329
1.10904
1.08614
1.06415
1.043
1.02265
1.00302
0.984063
0.965712
0.947913
0.930613
0.913765
0.897327
0.88126
0.865529
0.850104
0.834958
0.820067
0.805409
0.790967
0.776722
1.45423
1.44108
1.41813
1.38875
1.3575
1.32698
1.29755
1.26869
1.24014
1.21207
1.18487
1.15875
1.13376
1.10983
1.08688
1.06483
1.04362
1.02321
1.00353
0.984526
0.966134
0.948297
0.930962
0.914084
0.897617
0.881526
0.865773
0.85033
0.835167
0.820261
0.805589
0.791133
0.776877
1.45423
1.44108
1.41813
1.38875
1.3575
1.32698
1.29755
1.26869
1.24014
1.21207
1.18487
1.15875
1.13376
1.10983
1.08688
1.06483
1.04362
1.02321
1.00353
0.984526
0.966134
0.948297
0.930962
0.914084
0.897617
0.881526
0.865773
0.85033
0.835167
0.820261
0.805589
0.791133
0.776877
1.4627
1.44643
1.4202
1.38897
1.35722
1.32669
1.29714
1.268
1.2392
1.21105
1.18387
1.15782
1.1329
1.10904
1.08614
1.06415
1.043
1.02265
1.00302
0.984063
0.965712
0.947913
0.930613
0.913765
0.897327
0.88126
0.865529
0.850104
0.834958
0.820067
0.805409
0.790967
0.776722
1.48341
1.45725
1.42277
1.38793
1.35558
1.32508
1.2952
1.26552
1.23636
1.20814
1.18109
1.15525
1.13053
1.10686
1.08416
1.06236
1.04141
1.02124
1.00178
0.982969
0.96475
0.947068
0.929872
0.913116
0.896758
0.880761
0.865092
0.849721
0.834622
0.819771
0.805149
0.790737
0.776518
1.53434
1.48099
1.43091
1.39124
1.35822
1.32721
1.29635
1.26576
1.23606
1.20763
1.18052
1.15464
1.1299
1.10621
1.08351
1.06174
1.04082
1.02068
1.00126
0.982484
0.964302
0.946655
0.929492
0.912767
0.896437
0.880466
0.864822
0.849477
0.834401
0.81957
0.804965
0.790569
0.776364
1.52285
1.47129
1.42372
1.38641
1.35506
1.32517
1.29517
1.26529
1.23615
1.20812
1.18126
1.15553
1.13087
1.10722
1.08454
1.06277
1.04183
1.02167
1.00222
0.983416
0.965199
0.947513
0.93031
0.913544
0.897175
0.881166
0.865484
0.850094
0.834977
0.82011
0.805473
0.791045
0.776813
1.47186
1.44743
1.41547
1.38306
1.35249
1.32314
1.29408
1.2651
1.23651
1.20871
1.18193
1.15625
1.13162
1.10799
1.08531
1.06351
1.04255
1.02235
1.00285
0.984001
0.965739
0.948012
0.930771
0.913969
0.897566
0.881523
0.865809
0.850394
0.835252
0.820362
0.805702
0.791255
0.777005
1.45118
1.43661
1.41291
1.38417
1.35425
1.32487
1.29612
1.26767
1.23946
1.21176
1.18487
1.15899
1.13416
1.11034
1.08746
1.06546
1.04429
1.02389
1.00422
0.985209
0.966803
0.948947
0.931592
0.914689
0.898197
0.882077
0.866296
0.850824
0.835632
0.820698
0.806001
0.791521
0.777242
1.44274
1.43128
1.41086
1.38399
1.35457
1.3252
1.29657
1.2684
1.24045
1.21285
1.18595
1.16
1.1351
1.11121
1.08827
1.06621
1.04497
1.02451
1.00478
0.985714
0.967261
0.949363
0.931969
0.915031
0.898508
0.882361
0.866557
0.851065
0.835856
0.820907
0.806196
0.791703
0.777412
1.44274
1.43128
1.41086
1.38399
1.35457
1.3252
1.29657
1.2684
1.24045
1.21285
1.18595
1.16
1.1351
1.11121
1.08827
1.06621
1.04497
1.02451
1.00478
0.985714
0.967261
0.949363
0.931969
0.915031
0.898508
0.882361
0.866557
0.851065
0.835856
0.820907
0.806196
0.791703
0.777412
1.45118
1.43661
1.41291
1.38417
1.35425
1.32487
1.29612
1.26767
1.23946
1.21176
1.18487
1.15899
1.13416
1.11034
1.08746
1.06546
1.04429
1.02389
1.00422
0.985209
0.966803
0.948947
0.931592
0.914689
0.898197
0.882077
0.866296
0.850824
0.835632
0.820698
0.806001
0.791521
0.777242
1.47186
1.44743
1.41547
1.38306
1.35249
1.32314
1.29408
1.2651
1.23651
1.20871
1.18193
1.15625
1.13162
1.10799
1.08531
1.06351
1.04255
1.02235
1.00285
0.984001
0.965739
0.948012
0.930771
0.913969
0.897566
0.881523
0.865809
0.850394
0.835252
0.820362
0.805702
0.791255
0.777005
1.52285
1.47129
1.42372
1.38641
1.35506
1.32517
1.29517
1.26529
1.23615
1.20812
1.18126
1.15553
1.13087
1.10722
1.08454
1.06277
1.04183
1.02167
1.00222
0.983416
0.965199
0.947513
0.93031
0.913544
0.897175
0.881166
0.865484
0.850094
0.834977
0.82011
0.805473
0.791045
0.776813
1.5146
1.46395
1.41785
1.38218
1.3522
1.32329
1.29401
1.26471
1.23604
1.20836
1.18175
1.15618
1.13162
1.10804
1.0854
1.06364
1.04271
1.02255
1.00308
0.984254
0.966009
0.948294
0.931059
0.914259
0.897855
0.881811
0.866092
0.850671
0.835525
0.820629
0.805963
0.79151
0.777252
1.46356
1.43999
1.40949
1.37874
1.3496
1.32128
1.29295
1.26454
1.23642
1.209
1.18249
1.15697
1.13245
1.10889
1.08624
1.06446
1.04349
1.02328
1.00377
0.984889
0.966597
0.948837
0.931561
0.914722
0.898281
0.882202
0.86645
0.850999
0.835824
0.820901
0.806211
0.791735
0.777458
1.44285
1.42914
1.40689
1.37985
1.3514
1.32307
1.29505
1.26716
1.23943
1.21212
1.18552
1.15982
1.1351
1.11134
1.08849
1.0665
1.04532
1.02491
1.0052
0.986158
0.967714
0.949817
0.932419
0.915474
0.898939
0.882779
0.866958
0.851446
0.836219
0.821251
0.806521
0.792012
0.777704
1.43442
1.4238
1.40484
1.37969
1.35175
1.32344
1.29554
1.26793
1.24045
1.21325
1.18664
1.16088
1.13609
1.11226
1.08935
1.06729
1.04604
1.02556
1.00579
0.98669
0.968194
0.950252
0.932812
0.915829
0.899261
0.883071
0.867225
0.851694
0.836448
0.821464
0.806721
0.792198
0.777879
1.43442
1.4238
1.40484
1.37969
1.35175
1.32344
1.29554
1.26793
1.24045
1.21325
1.18664
1.16088
1.13609
1.11226
1.08935
1.06729
1.04604
1.02556
1.00579
0.98669
0.968194
0.950252
0.932812
0.915829
0.899261
0.883071
0.867225
0.851694
0.836448
0.821464
0.806721
0.792198
0.777879
1.44285
1.42914
1.40689
1.37985
1.3514
1.32307
1.29505
1.26716
1.23943
1.21212
1.18552
1.15982
1.1351
1.11134
1.08849
1.0665
1.04532
1.02491
1.0052
0.986158
0.967714
0.949817
0.932419
0.915474
0.898939
0.882779
0.866958
0.851446
0.836219
0.821251
0.806521
0.792012
0.777704
1.46356
1.43999
1.40949
1.37874
1.3496
1.32128
1.29295
1.26454
1.23642
1.209
1.18249
1.15697
1.13245
1.10889
1.08624
1.06446
1.04349
1.02328
1.00377
0.984889
0.966597
0.948837
0.931561
0.914722
0.898281
0.882202
0.86645
0.850999
0.835824
0.820901
0.806211
0.791735
0.777458
1.5146
1.46395
1.41785
1.38218
1.3522
1.32329
1.29401
1.26471
1.23604
1.20836
1.18175
1.15618
1.13162
1.10804
1.0854
1.06364
1.04271
1.02255
1.00308
0.984254
0.966009
0.948294
0.931059
0.914259
0.897855
0.881811
0.866092
0.850671
0.835525
0.820629
0.805963
0.79151
0.777252
1.5087
1.45855
1.41334
1.37876
1.34979
1.32167
1.29296
1.26412
1.23582
1.20843
1.18204
1.15662
1.13216
1.10865
1.08606
1.06433
1.04341
1.02325
1.00378
0.984937
0.966675
0.948939
0.93168
0.914856
0.898426
0.882354
0.866609
0.851164
0.835993
0.821073
0.806384
0.791909
0.777631
1.4576
1.43452
1.40489
1.37523
1.34713
1.31963
1.29191
1.26395
1.23621
1.20909
1.1828
1.15745
1.13303
1.10954
1.08694
1.06518
1.04423
1.02401
1.00449
0.985595
0.967282
0.949499
0.932198
0.915332
0.898863
0.882755
0.866976
0.851498
0.836297
0.821349
0.806635
0.792137
0.777838
1.43687
1.42364
1.40225
1.37632
1.34894
1.32146
1.29404
1.26661
1.23926
1.21226
1.18589
1.16037
1.13575
1.11206
1.08925
1.06728
1.0461
1.02568
1.00596
0.986892
0.968422
0.950497
0.93307
0.916094
0.899529
0.883337
0.867487
0.851947
0.836693
0.821699
0.806945
0.792413
0.778085
1.42842
1.41829
1.40019
1.37616
1.3493
1.32184
1.29455
1.2674
1.2403
1.21341
1.18705
1.16146
1.13677
1.11301
1.09013
1.06809
1.04684
1.02635
1.00657
0.987438
0.968914
0.950941
0.933469
0.916454
0.899854
0.883632
0.867756
0.852195
0.836922
0.821913
0.807145
0.7926
0.778259
1.42842
1.41829
1.40019
1.37616
1.3493
1.32184
1.29455
1.2674
1.2403
1.21341
1.18705
1.16146
1.13677
1.11301
1.09013
1.06809
1.04684
1.02635
1.00657
0.987438
0.968914
0.950941
0.933469
0.916454
0.899854
0.883632
0.867756
0.852195
0.836922
0.821913
0.807145
0.7926
0.778259
1.43687
1.42364
1.40225
1.37632
1.34894
1.32146
1.29404
1.26661
1.23926
1.21226
1.18589
1.16037
1.13575
1.11206
1.08925
1.06728
1.0461
1.02568
1.00596
0.986892
0.968422
0.950497
0.93307
0.916094
0.899529
0.883337
0.867487
0.851947
0.836693
0.821699
0.806945
0.792413
0.778085
1.4576
1.43452
1.40489
1.37523
1.34713
1.31963
1.29191
1.26395
1.23621
1.20909
1.1828
1.15745
1.13303
1.10954
1.08694
1.06518
1.04423
1.02401
1.00449
0.985595
0.967282
0.949499
0.932198
0.915332
0.898863
0.882755
0.866976
0.851498
0.836297
0.821349
0.806635
0.792137
0.777838
1.5087
1.45855
1.41334
1.37876
1.34979
1.32167
1.29296
1.26412
1.23582
1.20843
1.18204
1.15662
1.13216
1.10865
1.08606
1.06433
1.04341
1.02325
1.00378
0.984937
0.966675
0.948939
0.93168
0.914856
0.898426
0.882354
0.866609
0.851164
0.835993
0.821073
0.806384
0.791909
0.777631
1.50461
1.45477
1.41009
1.3762
1.34791
1.32036
1.2921
1.26359
1.23557
1.20841
1.18218
1.15689
1.13253
1.10908
1.08653
1.06483
1.04393
1.02377
1.0043
0.985452
0.967179
0.949429
0.932154
0.915311
0.898862
0.882771
0.867008
0.851544
0.836354
0.821416
0.80671
0.792218
0.777924
1.45348
1.43069
1.40157
1.37259
1.34519
1.3183
1.29104
1.26343
1.23596
1.20907
1.18297
1.15775
1.13342
1.10999
1.08743
1.0657
1.04476
1.02455
1.00502
0.986119
0.967794
0.949996
0.932676
0.915792
0.899303
0.883174
0.867375
0.851878
0.836658
0.821692
0.80696
0.792445
0.77813
1.43273
1.41978
1.3989
1.37366
1.34699
1.32013
1.29319
1.26611
1.23903
1.21226
1.18609
1.1607
1.13618
1.11255
1.08977
1.06782
1.04666
1.02623
1.00651
0.987428
0.968942
0.951
0.933552
0.916556
0.899969
0.883757
0.867885
0.852325
0.837051
0.822039
0.807268
0.792719
0.778375
1.42427
1.41442
1.39683
1.37349
1.34735
1.32052
1.2937
1.2669
1.24008
1.21343
1.18726
1.16181
1.13722
1.11352
1.09067
1.06865
1.04741
1.02692
1.00712
0.987982
0.96944
0.951447
0.933955
0.916918
0.900296
0.884052
0.868155
0.852573
0.837281
0.822252
0.807467
0.792905
0.778549
1.42427
1.41442
1.39683
1.37349
1.34735
1.32052
1.2937
1.2669
1.24008
1.21343
1.18726
1.16181
1.13722
1.11352
1.09067
1.06865
1.04741
1.02692
1.00712
0.987982
0.96944
0.951447
0.933955
0.916918
0.900296
0.884052
0.868155
0.852573
0.837281
0.822252
0.807467
0.792905
0.778549
1.43273
1.41978
1.3989
1.37366
1.34699
1.32013
1.29319
1.26611
1.23903
1.21226
1.18609
1.1607
1.13618
1.11255
1.08977
1.06782
1.04666
1.02623
1.00651
0.987428
0.968942
0.951
0.933552
0.916556
0.899969
0.883757
0.867885
0.852325
0.837051
0.822039
0.807268
0.792719
0.778375
1.45348
1.43069
1.40157
1.37259
1.34519
1.3183
1.29104
1.26343
1.23596
1.20907
1.18297
1.15775
1.13342
1.10999
1.08743
1.0657
1.04476
1.02455
1.00502
0.986119
0.967794
0.949996
0.932676
0.915792
0.899303
0.883174
0.867375
0.851878
0.836658
0.821692
0.80696
0.792445
0.77813
1.50461
1.45477
1.41009
1.3762
1.34791
1.32036
1.2921
1.26359
1.23557
1.20841
1.18218
1.15689
1.13253
1.10908
1.08653
1.06483
1.04393
1.02377
1.0043
0.985452
0.967179
0.949429
0.932154
0.915311
0.898862
0.882771
0.867008
0.851544
0.836354
0.821416
0.80671
0.792218
0.777924
1.50203
1.45236
1.40799
1.37449
1.34663
1.31945
1.29148
1.26321
1.23537
1.20836
1.18225
1.15705
1.13275
1.10935
1.08683
1.06515
1.04427
1.02411
1.00464
0.985795
0.967516
0.949757
0.932471
0.915617
0.899156
0.883053
0.867277
0.8518
0.836598
0.821648
0.80693
0.792427
0.778122
1.45088
1.42825
1.39943
1.37084
1.34387
1.31737
1.29041
1.26304
1.23576
1.20902
1.18304
1.15792
1.13366
1.11028
1.08775
1.06604
1.0451
1.0249
1.00537
0.986466
0.968134
0.950326
0.932996
0.916099
0.899597
0.883456
0.867644
0.852134
0.836901
0.821922
0.807179
0.792653
0.778327
1.43011
1.41732
1.39674
1.37188
1.34565
1.31918
1.29257
1.26573
1.23884
1.21223
1.18618
1.16089
1.13644
1.11285
1.0901
1.06817
1.04701
1.02659
1.00687
0.987781
0.969286
0.951333
0.933873
0.916863
0.900263
0.884037
0.868152
0.852579
0.837292
0.822268
0.807485
0.792925
0.77857
1.42164
1.41195
1.39466
1.37171
1.34601
1.31958
1.29309
1.26653
1.2399
1.21341
1.18736
1.16201
1.13749
1.11383
1.09101
1.069
1.04777
1.02728
1.00749
0.988339
0.969787
0.951783
0.934277
0.917226
0.90059
0.884333
0.868422
0.852827
0.837521
0.822481
0.807683
0.79311
0.778744
1.42164
1.41195
1.39466
1.37171
1.34601
1.31958
1.29309
1.26653
1.2399
1.21341
1.18736
1.16201
1.13749
1.11383
1.09101
1.069
1.04777
1.02728
1.00749
0.988339
0.969787
0.951783
0.934277
0.917226
0.90059
0.884333
0.868422
0.852827
0.837521
0.822481
0.807683
0.79311
0.778744
1.43011
1.41732
1.39674
1.37188
1.34565
1.31918
1.29257
1.26573
1.23884
1.21223
1.18618
1.16089
1.13644
1.11285
1.0901
1.06817
1.04701
1.02659
1.00687
0.987781
0.969286
0.951333
0.933873
0.916863
0.900263
0.884037
0.868152
0.852579
0.837292
0.822268
0.807485
0.792925
0.77857
1.45088
1.42825
1.39943
1.37084
1.34387
1.31737
1.29041
1.26304
1.23576
1.20902
1.18304
1.15792
1.13366
1.11028
1.08775
1.06604
1.0451
1.0249
1.00537
0.986466
0.968134
0.950326
0.932996
0.916099
0.899597
0.883456
0.867644
0.852134
0.836901
0.821922
0.807179
0.792653
0.778327
1.50203
1.45236
1.40799
1.37449
1.34663
1.31945
1.29148
1.26321
1.23537
1.20836
1.18225
1.15705
1.13275
1.10935
1.08683
1.06515
1.04427
1.02411
1.00464
0.985795
0.967516
0.949757
0.932471
0.915617
0.899156
0.883053
0.867277
0.8518
0.836598
0.821648
0.80693
0.792427
0.778122
1.50078
1.45118
1.40695
1.37364
1.34598
1.31898
1.29116
1.263
1.23526
1.20832
1.18228
1.15713
1.13286
1.10948
1.08698
1.06531
1.04443
1.02429
1.00481
0.985966
0.967684
0.949921
0.932631
0.915771
0.899304
0.883194
0.867412
0.851929
0.83672
0.821764
0.807041
0.792532
0.778222
1.44962
1.42706
1.39838
1.36997
1.3432
1.31688
1.29008
1.26284
1.23565
1.20899
1.18307
1.15799
1.13377
1.11041
1.0879
1.0662
1.04528
1.02507
1.00555
0.986639
0.968304
0.950492
0.933156
0.916253
0.899745
0.883597
0.867779
0.852262
0.837023
0.822038
0.807289
0.792757
0.778426
1.42884
1.41612
1.39567
1.371
1.34497
1.3187
1.29224
1.26553
1.23874
1.2122
1.18622
1.16098
1.13656
1.113
1.09026
1.06834
1.04719
1.02677
1.00705
0.987956
0.969458
0.951499
0.934033
0.917017
0.900411
0.884178
0.868286
0.852707
0.837413
0.822383
0.807594
0.793028
0.778668
1.42037
1.41075
1.39359
1.37082
1.34533
1.31909
1.29277
1.26633
1.2398
1.21338
1.1874
1.1621
1.13762
1.11398
1.09118
1.06918
1.04795
1.02746
1.00767
0.988516
0.96996
0.95195
0.934438
0.917381
0.900738
0.884473
0.868555
0.852954
0.837642
0.822595
0.807792
0.793213
0.778841
1.42037
1.41075
1.39359
1.37082
1.34533
1.31909
1.29277
1.26633
1.2398
1.21338
1.1874
1.1621
1.13762
1.11398
1.09118
1.06918
1.04795
1.02746
1.00767
0.988516
0.96996
0.95195
0.934438
0.917381
0.900738
0.884473
0.868555
0.852954
0.837642
0.822595
0.807792
0.793213
0.778841
1.42884
1.41612
1.39567
1.371
1.34497
1.3187
1.29224
1.26553
1.23874
1.2122
1.18622
1.16098
1.13656
1.113
1.09026
1.06834
1.04719
1.02677
1.00705
0.987956
0.969458
0.951499
0.934033
0.917017
0.900411
0.884178
0.868286
0.852707
0.837413
0.822383
0.807594
0.793028
0.778668
1.44962
1.42706
1.39838
1.36997
1.3432
1.31688
1.29008
1.26284
1.23565
1.20899
1.18307
1.15799
1.13377
1.11041
1.0879
1.0662
1.04528
1.02507
1.00555
0.986639
0.968304
0.950492
0.933156
0.916253
0.899745
0.883597
0.867779
0.852262
0.837023
0.822038
0.807289
0.792757
0.778426
1.50078
1.45118
1.40695
1.37364
1.34598
1.31898
1.29116
1.263
1.23526
1.20832
1.18228
1.15713
1.13286
1.10948
1.08698
1.06531
1.04443
1.02429
1.00481
0.985966
0.967684
0.949921
0.932631
0.915771
0.899304
0.883194
0.867412
0.851929
0.83672
0.821764
0.807041
0.792532
0.778222
1.50078
1.45118
1.40695
1.37364
1.34598
1.31898
1.29116
1.263
1.23526
1.20832
1.18228
1.15713
1.13286
1.10948
1.08698
1.06531
1.04443
1.02429
1.00481
0.985966
0.967684
0.949921
0.932631
0.915771
0.899304
0.883194
0.867412
0.851929
0.83672
0.821764
0.807041
0.792532
0.778222
1.44962
1.42706
1.39838
1.36997
1.3432
1.31688
1.29008
1.26284
1.23565
1.20899
1.18307
1.15799
1.13377
1.11041
1.0879
1.0662
1.04528
1.02507
1.00555
0.986639
0.968304
0.950492
0.933156
0.916253
0.899745
0.883597
0.867779
0.852262
0.837023
0.822038
0.807289
0.792757
0.778426
1.42884
1.41612
1.39567
1.371
1.34497
1.3187
1.29224
1.26553
1.23874
1.2122
1.18622
1.16098
1.13656
1.113
1.09026
1.06834
1.04719
1.02677
1.00705
0.987956
0.969458
0.951499
0.934033
0.917017
0.900411
0.884178
0.868286
0.852707
0.837413
0.822383
0.807594
0.793028
0.778668
1.42037
1.41075
1.39359
1.37082
1.34533
1.31909
1.29277
1.26633
1.2398
1.21338
1.1874
1.1621
1.13762
1.11398
1.09118
1.06918
1.04795
1.02746
1.00767
0.988516
0.96996
0.95195
0.934438
0.917381
0.900738
0.884473
0.868555
0.852954
0.837642
0.822595
0.807792
0.793213
0.778841
1.42037
1.41075
1.39359
1.37082
1.34533
1.31909
1.29277
1.26633
1.2398
1.21338
1.1874
1.1621
1.13762
1.11398
1.09118
1.06918
1.04795
1.02746
1.00767
0.988516
0.96996
0.95195
0.934438
0.917381
0.900738
0.884473
0.868555
0.852954
0.837642
0.822595
0.807792
0.793213
0.778841
1.42884
1.41612
1.39567
1.371
1.34497
1.3187
1.29224
1.26553
1.23874
1.2122
1.18622
1.16098
1.13656
1.113
1.09026
1.06834
1.04719
1.02677
1.00705
0.987956
0.969458
0.951499
0.934033
0.917017
0.900411
0.884178
0.868286
0.852707
0.837413
0.822383
0.807594
0.793028
0.778668
1.44962
1.42706
1.39838
1.36997
1.3432
1.31688
1.29008
1.26284
1.23565
1.20899
1.18307
1.15799
1.13377
1.11041
1.0879
1.0662
1.04528
1.02507
1.00555
0.986639
0.968304
0.950492
0.933156
0.916253
0.899745
0.883597
0.867779
0.852262
0.837023
0.822038
0.807289
0.792757
0.778426
1.50078
1.45118
1.40695
1.37364
1.34598
1.31898
1.29116
1.263
1.23526
1.20832
1.18228
1.15713
1.13286
1.10948
1.08698
1.06531
1.04443
1.02429
1.00481
0.985966
0.967684
0.949921
0.932631
0.915771
0.899304
0.883194
0.867412
0.851929
0.83672
0.821764
0.807041
0.792532
0.778222
1.50203
1.45236
1.40799
1.37449
1.34663
1.31945
1.29148
1.26321
1.23537
1.20836
1.18225
1.15705
1.13275
1.10935
1.08683
1.06515
1.04427
1.02411
1.00464
0.985795
0.967516
0.949757
0.932471
0.915617
0.899156
0.883053
0.867277
0.8518
0.836598
0.821648
0.80693
0.792427
0.778122
1.45088
1.42825
1.39943
1.37084
1.34387
1.31737
1.29041
1.26304
1.23576
1.20902
1.18304
1.15792
1.13366
1.11028
1.08775
1.06604
1.0451
1.0249
1.00537
0.986466
0.968134
0.950326
0.932996
0.916099
0.899597
0.883456
0.867644
0.852134
0.836901
0.821922
0.807179
0.792653
0.778327
1.43011
1.41732
1.39674
1.37188
1.34565
1.31918
1.29257
1.26573
1.23884
1.21223
1.18618
1.16089
1.13644
1.11285
1.0901
1.06817
1.04701
1.02659
1.00687
0.987781
0.969286
0.951333
0.933873
0.916863
0.900263
0.884037
0.868152
0.852579
0.837292
0.822268
0.807485
0.792925
0.77857
1.42164
1.41195
1.39466
1.37171
1.34601
1.31958
1.29309
1.26653
1.2399
1.21341
1.18736
1.16201
1.13749
1.11383
1.09101
1.069
1.04777
1.02728
1.00749
0.988339
0.969787
0.951783
0.934277
0.917226
0.90059
0.884333
0.868422
0.852827
0.837521
0.822481
0.807683
0.79311
0.778744
1.42164
1.41195
1.39466
1.37171
1.34601
1.31958
1.29309
1.26653
1.2399
1.21341
1.18736
1.16201
1.13749
1.11383
1.09101
1.069
1.04777
1.02728
1.00749
0.988339
0.969787
0.951783
0.934277
0.917226
0.90059
0.884333
0.868422
0.852827
0.837521
0.822481
0.807683
0.79311
0.778744
1.43011
1.41732
1.39674
1.37188
1.34565
1.31918
1.29257
1.26573
1.23884
1.21223
1.18618
1.16089
1.13644
1.11285
1.0901
1.06817
1.04701
1.02659
1.00687
0.987781
0.969286
0.951333
0.933873
0.916863
0.900263
0.884037
0.868152
0.852579
0.837292
0.822268
0.807485
0.792925
0.77857
1.45088
1.42825
1.39943
1.37084
1.34387
1.31737
1.29041
1.26304
1.23576
1.20902
1.18304
1.15792
1.13366
1.11028
1.08775
1.06604
1.0451
1.0249
1.00537
0.986466
0.968134
0.950326
0.932996
0.916099
0.899597
0.883456
0.867644
0.852134
0.836901
0.821922
0.807179
0.792653
0.778327
1.50203
1.45236
1.40799
1.37449
1.34663
1.31945
1.29148
1.26321
1.23537
1.20836
1.18225
1.15705
1.13275
1.10935
1.08683
1.06515
1.04427
1.02411
1.00464
0.985795
0.967516
0.949757
0.932471
0.915617
0.899156
0.883053
0.867277
0.8518
0.836598
0.821648
0.80693
0.792427
0.778122
1.50461
1.45477
1.41009
1.3762
1.34791
1.32036
1.2921
1.26359
1.23557
1.20841
1.18218
1.15689
1.13253
1.10908
1.08653
1.06483
1.04393
1.02377
1.0043
0.985452
0.967179
0.949429
0.932154
0.915311
0.898862
0.882771
0.867008
0.851544
0.836354
0.821416
0.80671
0.792218
0.777924
1.45348
1.43069
1.40157
1.37259
1.34519
1.3183
1.29104
1.26343
1.23596
1.20907
1.18297
1.15775
1.13342
1.10999
1.08743
1.0657
1.04476
1.02455
1.00502
0.986119
0.967794
0.949996
0.932676
0.915792
0.899303
0.883174
0.867375
0.851878
0.836658
0.821692
0.80696
0.792445
0.77813
1.43273
1.41978
1.3989
1.37366
1.34699
1.32013
1.29319
1.26611
1.23903
1.21226
1.18609
1.1607
1.13618
1.11255
1.08977
1.06782
1.04666
1.02623
1.00651
0.987428
0.968942
0.951
0.933552
0.916556
0.899969
0.883757
0.867885
0.852325
0.837051
0.822039
0.807268
0.792719
0.778375
1.42427
1.41442
1.39683
1.37349
1.34735
1.32052
1.2937
1.2669
1.24008
1.21343
1.18726
1.16181
1.13722
1.11352
1.09067
1.06865
1.04741
1.02692
1.00712
0.987982
0.96944
0.951447
0.933955
0.916918
0.900296
0.884052
0.868155
0.852573
0.837281
0.822252
0.807467
0.792905
0.778549
1.42427
1.41442
1.39683
1.37349
1.34735
1.32052
1.2937
1.2669
1.24008
1.21343
1.18726
1.16181
1.13722
1.11352
1.09067
1.06865
1.04741
1.02692
1.00712
0.987982
0.96944
0.951447
0.933955
0.916918
0.900296
0.884052
0.868155
0.852573
0.837281
0.822252
0.807467
0.792905
0.778549
1.43273
1.41978
1.3989
1.37366
1.34699
1.32013
1.29319
1.26611
1.23903
1.21226
1.18609
1.1607
1.13618
1.11255
1.08977
1.06782
1.04666
1.02623
1.00651
0.987428
0.968942
0.951
0.933552
0.916556
0.899969
0.883757
0.867885
0.852325
0.837051
0.822039
0.807268
0.792719
0.778375
1.45348
1.43069
1.40157
1.37259
1.34519
1.3183
1.29104
1.26343
1.23596
1.20907
1.18297
1.15775
1.13342
1.10999
1.08743
1.0657
1.04476
1.02455
1.00502
0.986119
0.967794
0.949996
0.932676
0.915792
0.899303
0.883174
0.867375
0.851878
0.836658
0.821692
0.80696
0.792445
0.77813
1.50461
1.45477
1.41009
1.3762
1.34791
1.32036
1.2921
1.26359
1.23557
1.20841
1.18218
1.15689
1.13253
1.10908
1.08653
1.06483
1.04393
1.02377
1.0043
0.985452
0.967179
0.949429
0.932154
0.915311
0.898862
0.882771
0.867008
0.851544
0.836354
0.821416
0.80671
0.792218
0.777924
1.5087
1.45855
1.41334
1.37876
1.34979
1.32167
1.29296
1.26412
1.23582
1.20843
1.18204
1.15662
1.13216
1.10865
1.08606
1.06433
1.04341
1.02325
1.00378
0.984937
0.966675
0.948939
0.93168
0.914856
0.898426
0.882354
0.866609
0.851164
0.835993
0.821073
0.806384
0.791909
0.777631
1.4576
1.43452
1.40489
1.37523
1.34713
1.31963
1.29191
1.26395
1.23621
1.20909
1.1828
1.15745
1.13303
1.10954
1.08694
1.06518
1.04423
1.02401
1.00449
0.985595
0.967282
0.949499
0.932198
0.915332
0.898863
0.882755
0.866976
0.851498
0.836297
0.821349