/*--------------------------------*- C++ -*----------------------------------*\
| =========                 |                                                 |
| \\      /  F ield         | OpenFOAM: The Open Source CFD Toolbox           |
|  \\    /   O peration     | Version:  2412                                  |
|   \\  /    A nd           | Website:  www.openfoam.com                      |
|    \\/     M anipulation  |                                                 |
\*---------------------------------------------------------------------------*/
FoamFile
{
    version     2.0;
    format      ascii;
    arch        "LSB;label=32;scalar=64";
    class       surfaceScalarField;
    location    "4.0040539";
    object      phi;
}
// * * * * * * * * * * * * * * * * * * * * * * * * * * * * * * * * * * * * * //

dimensions      [0 3 -1 0 0 0 0];

oriented        oriented;

internalField   nonuniform List<scalar> 
45040
(
0.00235263
7.20947e-05
7.52733e-05
0.00212162
0.000111151
0.000119862
0.00188973
0.000109415
0.000122476
0.00167103
0.000101267
0.000117433
0.00147037
9.14941e-05
0.000109168
0.00129441
7.90702e-05
9.68903e-05
0.00114726
6.50401e-05
8.21063e-05
0.00102833
5.15988e-05
6.73259e-05
0.00093387
4.02589e-05
5.42051e-05
0.000859136
3.14484e-05
4.32856e-05
0.000799611
2.49885e-05
3.45366e-05
0.000751438
2.04701e-05
2.77031e-05
0.000711591
1.74182e-05
2.24284e-05
0.00067787
1.53819e-05
1.83393e-05
0.000648765
1.39899e-05
1.51148e-05
0.000623276
1.29726e-05
1.2517e-05
0.000600734
1.21554e-05
1.03861e-05
0.000580679
1.14362e-05
8.61886e-06
0.00056277
1.07621e-05
7.1471e-06
0.000546738
1.01096e-05
5.92258e-06
0.000532358
9.47146e-06
4.90794e-06
0.000519437
8.84894e-06
4.07204e-06
0.000507803
8.24645e-06
3.38772e-06
0.000497304
7.66885e-06
2.83091e-06
0.000487803
7.12037e-06
2.38045e-06
0.000479181
6.6043e-06
2.0173e-06
0.000471333
6.12277e-06
1.72524e-06
0.000464167
5.67681e-06
1.48967e-06
0.0004576
5.26624e-06
1.30008e-06
0.000451562
4.88991e-06
1.14812e-06
0.00044599
4.54627e-06
1.02604e-06
0.000440829
4.23347e-06
9.27071e-07
3.94921e-06
8.45922e-07
0.000436034
0.00246447
3.21311e-05
7.54965e-05
0.00237902
7.12205e-05
0.000125375
0.00227429
8.27781e-05
0.000131369
0.00216456
8.13979e-05
0.000129601
0.0020513
7.76954e-05
0.000127057
0.00193647
7.21848e-05
0.000121717
0.00182391
6.41076e-05
0.000113492
0.00171732
5.44109e-05
0.00010378
0.0016189
4.47689e-05
9.39065e-05
0.0015296
3.62918e-05
8.44578e-05
0.00144962
2.93583e-05
7.5609e-05
0.00137872
2.39473e-05
6.74274e-05
0.0013163
1.98878e-05
5.99525e-05
0.00126154
1.69474e-05
5.3194e-05
0.00121353
1.48705e-05
4.71292e-05
0.00117137
1.34155e-05
4.17143e-05
0.00113424
1.23818e-05
3.68979e-05
0.00110143
1.16188e-05
3.26284e-05
0.00107232
1.10214e-05
2.88563e-05
0.00104637
1.05202e-05
2.55346e-05
0.00102316
1.00715e-05
2.26178e-05
0.00100229
9.65167e-06
2.0063e-05
0.000983459
9.24749e-06
1.783e-05
0.000966393
8.85233e-06
1.58822e-05
0.000950864
8.46394e-06
1.41855e-05
0.000936676
8.08291e-06
1.27087e-05
0.000923665
7.71111e-06
1.14236e-05
0.000911686
7.35081e-06
1.03046e-05
0.000900619
7.00411e-06
9.32909e-06
0.000890359
6.67265e-06
8.47762e-06
0.000880814
6.35765e-06
7.73312e-06
0.000871907
6.06042e-06
7.08057e-06
5.77954e-06
6.50725e-06
0.000863569
0.00244465
1.25273e-05
7.49543e-05
0.00235922
3.19288e-05
0.000124721
0.00227178
4.07073e-05
0.000129512
0.00218584
4.10135e-05
0.000126324
0.00210044
3.95667e-05
0.000123533
0.00201576
3.76676e-05
0.00011919
0.0019328
3.46205e-05
0.000112445
0.0018527
3.04296e-05
0.000104086
0.00177633
2.58357e-05
9.53058e-05
0.0017043
2.15377e-05
8.67802e-05
0.00163709
1.78543e-05
7.87163e-05
0.00157504
1.4834e-05
7.11668e-05
0.00151832
1.24316e-05
6.41694e-05
0.00146694
1.05762e-05
5.77579e-05
0.00142068
9.18032e-06
5.19434e-05
0.00137924
8.14788e-06
4.67089e-05
0.00134222
7.38778e-06
4.20189e-05
0.00130918
6.82218e-06
3.78306e-05
0.00127971
6.39287e-06
3.40998e-05
0.00125339
6.06051e-06
3.07808e-05
0.00122984
5.79477e-06
2.78308e-05
0.00120869
5.56982e-06
2.52302e-05
0.00118963
5.36856e-06
2.29415e-05
0.00117237
5.18098e-06
2.09263e-05
0.00115668
5.00131e-06
1.91512e-05
0.00114235
4.82653e-06
1.7586e-05
0.0011292
4.65542e-06
1.6204e-05
0.00111709
4.48782e-06
1.49816e-05
0.00110587
4.32415e-06
1.38979e-05
0.00109544
4.16505e-06
1.29347e-05
0.00108571
4.01123e-06
1.20761e-05
0.0010766
3.86321e-06
1.13082e-05
3.72109e-06
1.06183e-05
0.00106804
0.00243763
3.51083e-15
7.49021e-05
0.00234457
-7.65032e-15
0.000124987
0.0022557
-3.70294e-15
0.000129574
0.002171
1.63818e-14
0.00012571
0.00208825
2.73935e-14
0.000122316
0.00200813
1.78188e-14
0.000117792
0.00193165
-5.79848e-15
0.000111104
0.00185926
-3.77189e-14
0.000102814
0.00179105
-5.41565e-14
9.40507e-05
0.00172703
-5.94904e-14
8.55532e-05
0.00166732
-6.13386e-14
7.75627e-05
0.00161204
-6.16625e-14
7.01145e-05
0.00156126
-6.00626e-14
6.32178e-05
0.00151494
-5.84662e-14
5.68958e-05
0.00147295
-5.381e-14
5.11653e-05
0.00143508
-4.70601e-14
4.6019e-05
0.00140104
-4.0191e-14
4.1426e-05
0.00137052
-3.39837e-14
3.73433e-05
0.00134319
-3.38704e-14
3.37227e-05
0.00131873
-3.56732e-14
3.05255e-05
0.0012968
-4.05733e-14
2.77263e-05
0.00127709
-4.02823e-14
2.52715e-05
0.00125934
-3.71093e-14
2.31183e-05
0.00124329
-2.14358e-14
2.12301e-05
0.00122872
-6.61781e-15
1.95732e-05
0.00121543
1.05014e-14
1.81175e-05
0.00120325
2.60989e-14
1.6836e-05
0.00119203
3.23638e-14
1.57049e-05
0.00118165
5.93745e-14
1.47034e-05
0.00117201
7.051e-14
1.38137e-05
0.001163
1.09089e-13
1.30201e-05
0.00115455
1.27061e-13
1.23094e-05
1.61729e-13
1.167e-05
0.0011466
0.00243763
-1.25273e-05
7.49021e-05
0.00234457
-3.19288e-05
0.000124987
0.0022557
-4.07073e-05
0.000129574
0.002171
-4.10135e-05
0.00012571
0.00208825
-3.95667e-05
0.000122316
0.00200813
-3.76676e-05
0.000117792
0.00193165
-3.46205e-05
0.000111104
0.00185926
-3.04296e-05
0.000102814
0.00179105
-2.58357e-05
9.40507e-05
0.00172703
-2.15377e-05
8.55532e-05
0.00166732
-1.78543e-05
7.75627e-05
0.00161204
-1.4834e-05
7.01145e-05
0.00156126
-1.24316e-05
6.32178e-05
0.00151494
-1.05762e-05
5.68958e-05
0.00147295
-9.18032e-06
5.11653e-05
0.00143508
-8.14788e-06
4.6019e-05
0.00140104
-7.38778e-06
4.1426e-05
0.00137052
-6.82218e-06
3.73433e-05
0.00134319
-6.39287e-06
3.37227e-05
0.00131873
-6.06051e-06
3.05255e-05
0.0012968
-5.79477e-06
2.77263e-05
0.00127709
-5.56982e-06
2.52715e-05
0.00125934
-5.36856e-06
2.31183e-05
0.00124329
-5.18098e-06
2.12301e-05
0.00122872
-5.00131e-06
1.95732e-05
0.00121543
-4.82653e-06
1.81175e-05
0.00120325
-4.65542e-06
1.6836e-05
0.00119203
-4.48782e-06
1.57049e-05
0.00118165
-4.32415e-06
1.47034e-05
0.00117201
-4.16505e-06
1.38137e-05
0.001163
-4.01123e-06
1.30201e-05
0.00115455
-3.86321e-06
1.23094e-05
-3.72109e-06
1.167e-05
0.0011466
0.00244465
-3.21311e-05
7.49543e-05
0.00235922
-7.12205e-05
0.000124721
0.00227178
-8.27781e-05
0.000129512
0.00218584
-8.13979e-05
0.000126324
0.00210044
-7.76954e-05
0.000123533
0.00201576
-7.21848e-05
0.00011919
0.0019328
-6.41076e-05
0.000112445
0.0018527
-5.44109e-05
0.000104086
0.00177633
-4.47689e-05
9.53058e-05
0.0017043
-3.62918e-05
8.67802e-05
0.00163709
-2.93583e-05
7.87163e-05
0.00157504
-2.39473e-05
7.11668e-05
0.00151832
-1.98878e-05
6.41694e-05
0.00146694
-1.69474e-05
5.77579e-05
0.00142068
-1.48705e-05
5.19434e-05
0.00137924
-1.34155e-05
4.67089e-05
0.00134222
-1.23818e-05
4.20189e-05
0.00130918
-1.16188e-05
3.78306e-05
0.00127971
-1.10214e-05
3.40998e-05
0.00125339
-1.05202e-05
3.07808e-05
0.00122984
-1.00715e-05
2.78308e-05
0.00120869
-9.65167e-06
2.52302e-05
0.00118963
-9.24749e-06
2.29415e-05
0.00117237
-8.85233e-06
2.09263e-05
0.00115668
-8.46394e-06
1.91512e-05
0.00114235
-8.08291e-06
1.7586e-05
0.0011292
-7.71111e-06
1.6204e-05
0.00111709
-7.35081e-06
1.49816e-05
0.00110587
-7.00411e-06
1.38979e-05
0.00109544
-6.67265e-06
1.29347e-05
0.00108571
-6.35765e-06
1.20761e-05
0.0010766
-6.06041e-06
1.13082e-05
-5.77954e-06
1.06183e-05
0.00106804
0.00246447
-7.20947e-05
7.54965e-05
0.00237902
-0.000111151
0.000125375
0.00227429
-0.000109415
0.000131369
0.00216456
-0.000101267
0.000129601
0.0020513
-9.14941e-05
0.000127057
0.00193647
-7.90702e-05
0.000121717
0.00182391
-6.50401e-05
0.000113492
0.00171732
-5.15988e-05
0.00010378
0.0016189
-4.02589e-05
9.39065e-05
0.0015296
-3.14484e-05
8.44578e-05
0.00144962
-2.49885e-05
7.5609e-05
0.00137872
-2.04701e-05
6.74274e-05
0.0013163
-1.74182e-05
5.99525e-05
0.00126154
-1.53819e-05
5.3194e-05
0.00121353
-1.39899e-05
4.71292e-05
0.00117137
-1.29726e-05
4.17143e-05
0.00113424
-1.21554e-05
3.68979e-05
0.00110143
-1.14362e-05
3.26284e-05
0.00107232
-1.07621e-05
2.88563e-05
0.00104637
-1.01096e-05
2.55346e-05
0.00102316
-9.47146e-06
2.26178e-05
0.00100229
-8.84894e-06
2.0063e-05
0.000983459
-8.24645e-06
1.783e-05
0.000966393
-7.66885e-06
1.58822e-05
0.000950864
-7.12037e-06
1.41855e-05
0.000936676
-6.6043e-06
1.27087e-05
0.000923665
-6.12277e-06
1.14236e-05
0.000911686
-5.67681e-06
1.03046e-05
0.000900619
-5.26624e-06
9.32909e-06
0.000890359
-4.88991e-06
8.47762e-06
0.000880814
-4.54627e-06
7.73312e-06
0.000871907
-4.23347e-06
7.08057e-06
-3.94921e-06
6.50725e-06
0.000863569
0.00235263
7.52733e-05
0.00212162
0.000119862
0.00188973
0.000122476
0.00167103
0.000117433
0.00147037
0.000109168
0.00129441
9.68903e-05
0.00114726
8.21063e-05
0.00102833
6.73259e-05
0.00093387
5.42051e-05
0.000859136
4.32856e-05
0.000799611
3.45366e-05
0.000751438
2.77031e-05
0.000711591
2.24284e-05
0.00067787
1.83393e-05
0.000648765
1.51148e-05
0.000623276
1.2517e-05
0.000600734
1.03861e-05
0.000580679
8.61886e-06
0.00056277
7.1471e-06
0.000546738
5.92258e-06
0.000532358
4.90794e-06
0.000519437
4.07204e-06
0.000507803
3.38772e-06
0.000497304
2.83091e-06
0.000487803
2.38045e-06
0.000479181
2.0173e-06
0.000471333
1.72524e-06
0.000464167
1.48967e-06
0.0004576
1.30008e-06
0.000451562
1.14812e-06
0.00044599
1.02604e-06
0.000440829
9.27071e-07
8.45922e-07
0.000436034
0.00246464
7.2296e-05
3.83324e-05
0.00237902
0.000116527
8.89581e-05
0.00227333
0.000118085
0.00011008
0.00216279
0.00011292
0.000115054
0.00204903
0.000108203
0.000114731
0.0019339
0.000101843
0.00011017
0.00182134
9.34447e-05
0.000101225
0.00171517
8.41483e-05
8.93495e-05
0.00161766
7.51487e-05
7.65593e-05
0.00152973
6.69556e-05
6.42679e-05
0.00145142
5.96582e-05
5.31822e-05
0.00138232
5.32176e-05
4.35854e-05
0.00132166
4.7568e-05
3.55263e-05
0.00126846
4.26327e-05
2.89004e-05
0.00122174
3.83257e-05
2.35167e-05
0.00118053
3.45599e-05
1.91608e-05
0.00114403
3.12545e-05
1.56364e-05
0.00111153
2.83402e-05
1.27808e-05
0.00108245
2.57592e-05
1.04636e-05
0.00105633
2.34642e-05
8.58202e-06
0.00103276
2.14165e-05
7.05426e-06
0.00101144
1.95833e-05
5.81547e-06
0.000992073
1.79373e-05
4.81354e-06
0.000974442
1.64563e-05
4.00581e-06
0.000958343
1.51219e-05
3.35746e-06
0.000943604
1.39187e-05
2.83809e-06
0.000930072
1.2833e-05
2.42404e-06
0.000917616
1.18532e-05
2.09225e-06
0.000906119
1.09687e-05
1.82798e-06
0.000895478
1.01696e-05
1.62023e-06
0.000885599
9.44682e-06
1.45768e-06
0.000876404
8.79246e-06
1.33014e-06
8.19934e-06
1.22975e-06
0.000867821
0.00257747
3.20445e-05
3.82791e-05
0.00265113
7.49576e-05
9.32837e-05
0.00269007
9.08292e-05
0.000119681
0.0027111
9.24915e-05
0.000128998
0.00272091
9.19439e-05
0.000133506
0.00271801
9.09684e-05
0.000135495
0.00270258
8.82364e-05
0.000134134
0.00267732
8.35516e-05
0.000129629
0.00264539
7.78415e-05
0.000123147
0.00260904
7.20045e-05
0.000115754
0.0025698
6.64601e-05
0.000108056
0.00252881
6.12983e-05
0.000100336
0.00248706
5.65113e-05
9.27539e-05
0.00244537
5.20961e-05
8.54266e-05
0.00240432
4.80557e-05
7.84448e-05
0.00236435
4.43815e-05
7.18667e-05
0.00232573
4.10495e-05
6.57231e-05
0.00228864
3.80283e-05
6.0025e-05
0.0022532
3.52855e-05
5.4771e-05
0.00221946
3.27915e-05
4.99514e-05
0.00218742
3.05185e-05
4.55511e-05
0.00215708
2.84398e-05
4.15498e-05
0.00212839
2.65347e-05
3.7924e-05
0.00210129
2.4787e-05
3.46475e-05
0.00207572
2.31827e-05
3.16937e-05
0.0020516
2.17093e-05
2.90348e-05
0.00202886
2.03558e-05
2.66445e-05
0.00200741
1.91116e-05
2.44976e-05
0.00198717
1.7967e-05
2.25707e-05
0.00196806
1.69137e-05
2.08411e-05
0.00195001
1.59438e-05
1.92879e-05
0.00193294
1.50502e-05
1.78918e-05
1.42265e-05
1.66352e-05
0.00191679
0.00255683
1.24249e-05
3.77481e-05
0.00263034
3.33986e-05
9.27681e-05
0.00268733
4.45346e-05
0.000118818
0.00273198
4.67446e-05
0.000127413
0.00276927
4.68467e-05
0.000131344
0.00279873
4.70365e-05
0.00013366
0.00281933
4.66797e-05
0.000133403
0.00283144
4.52331e-05
0.000130297
0.00283641
4.29713e-05
0.000125208
0.0028356
4.04256e-05
0.000119167
0.00283004
3.79222e-05
0.000112807
0.00282056
3.55495e-05
0.0001064
0.00280788
3.33027e-05
0.000100062
0.00279268
3.11784e-05
9.3877e-05
0.00277556
2.91863e-05
8.79254e-05
0.00275705
2.73338e-05
8.22669e-05
0.00273757
2.56191e-05
7.69344e-05
0.00271746
2.40334e-05
7.1938e-05
0.002697
2.25656e-05
6.72755e-05
0.00267643
2.12013e-05
6.29381e-05
0.00265594
1.99269e-05
5.8915e-05
0.00263567
1.87451e-05
5.51938e-05
0.00261574
1.7651e-05
5.17577e-05
0.00259623
1.66362e-05
4.8588e-05
0.0025772
1.56939e-05
4.56663e-05
0.0025587
1.48188e-05
4.29737e-05
0.00254076
1.40063e-05
4.04921e-05
0.0025234
1.32519e-05
3.82042e-05
0.00250662
1.25512e-05
3.60938e-05
0.00249042
1.19003e-05
3.41459e-05
0.0024748
1.12955e-05
3.23461e-05
0.00245975
1.07334e-05
3.06815e-05
1.02106e-05
2.91402e-05
0.00244524
0.00254978
1.06063e-14
3.75492e-05
0.00261565
-1.10119e-14
9.25126e-05
0.00267124
-3.08972e-14
0.000118524
0.0027169
-3.01372e-14
0.000126791
0.0027558
-6.94146e-15
0.000130261
0.00278839
-4.21397e-15
0.000132239
0.00281433
-8.48354e-15
0.000131847
0.0028337
-1.33053e-14
0.000128677
0.00284722
-2.59674e-14
0.000123502
0.00285582
-2.91672e-14
0.000117374
0.00286032
-3.10644e-14
0.000110985
0.00286135
-4.10957e-14
0.000104634
0.00285945
-4.06762e-14
9.84261e-05
0.00285509
-3.77114e-14
9.24269e-05
0.00284874
-3.23983e-14
8.67038e-05
0.00284078
-1.89852e-14
8.13128e-05
0.00283154
-1.26277e-14
7.62818e-05
0.00282131
1.35763e-15
7.1614e-05
0.0028103
6.99245e-15
6.7298e-05
0.00279871
2.08747e-14
6.33191e-05
0.0027867
2.18652e-14
5.96622e-05
0.00277441
2.82673e-14
5.63059e-05
0.00276195
1.48064e-14
5.32259e-05
0.00274942
2.38094e-14
5.03974e-05
0.00273689
3.29756e-14
4.77969e-05
0.00272442
2.88543e-14
4.54036e-05
0.00271207
7.66855e-14
4.3198e-05
0.00269986
4.09625e-14
4.11618e-05
0.00268784
1.09358e-13
3.92782e-05
0.00267602
8.29235e-14
3.75324e-05
0.00266442
1.53775e-13
3.59108e-05
0.00265307
1.94909e-13
3.44015e-05
1.46477e-13
3.29937e-05
0.00264195
0.00254978
-1.24249e-05
3.75492e-05
0.00261565
-3.33986e-05
9.25126e-05
0.00267124
-4.45346e-05
0.000118524
0.0027169
-4.67446e-05
0.000126791
0.0027558
-4.68467e-05
0.000130261
0.00278839
-4.70365e-05
0.000132239
0.00281433
-4.66797e-05
0.000131847
0.0028337
-4.52331e-05
0.000128677
0.00284722
-4.29713e-05
0.000123502
0.00285582
-4.04256e-05
0.000117374
0.00286032
-3.79222e-05
0.000110985
0.00286135
-3.55495e-05
0.000104634
0.00285945
-3.33027e-05
9.84261e-05
0.00285509
-3.11784e-05
9.24269e-05
0.00284874
-2.91863e-05
8.67038e-05
0.00284078
-2.73338e-05
8.13128e-05
0.00283154
-2.56191e-05
7.62818e-05
0.00282131
-2.40334e-05
7.1614e-05
0.0028103
-2.25656e-05
6.7298e-05
0.00279871
-2.12013e-05
6.33191e-05
0.0027867
-1.99269e-05
5.96622e-05
0.00277441
-1.87451e-05
5.63059e-05
0.00276195
-1.7651e-05
5.32259e-05
0.00274942
-1.66362e-05
5.03974e-05
0.00273689
-1.56939e-05
4.77969e-05
0.00272442
-1.48188e-05
4.54036e-05
0.00271207
-1.40063e-05
4.3198e-05
0.00269986
-1.32519e-05
4.11618e-05
0.00268784
-1.25512e-05
3.92782e-05
0.00267602
-1.19003e-05
3.75324e-05
0.00266442
-1.12955e-05
3.59108e-05
0.00265307
-1.07334e-05
3.44015e-05
-1.02106e-05
3.29937e-05
0.00264195
0.00255683
-3.20445e-05
3.77481e-05
0.00263034
-7.49576e-05
9.27681e-05
0.00268733
-9.08292e-05
0.000118818
0.00273198
-9.24915e-05
0.000127413
0.00276927
-9.19439e-05
0.000131344
0.00279873
-9.09684e-05
0.00013366
0.00281933
-8.82364e-05
0.000133403
0.00283144
-8.35516e-05
0.000130297
0.00283641
-7.78415e-05
0.000125208
0.0028356
-7.20045e-05
0.000119167
0.00283004
-6.64601e-05
0.000112807
0.00282056
-6.12983e-05
0.0001064
0.00280788
-5.65113e-05
0.000100062
0.00279268
-5.20961e-05
9.3877e-05
0.00277556
-4.80557e-05
8.79254e-05
0.00275705
-4.43815e-05
8.22669e-05
0.00273757
-4.10495e-05
7.69344e-05
0.00271746
-3.80283e-05
7.1938e-05
0.002697
-3.52855e-05
6.72755e-05
0.00267643
-3.27915e-05
6.29381e-05
0.00265594
-3.05185e-05
5.8915e-05
0.00263567
-2.84398e-05
5.51938e-05
0.00261574
-2.65347e-05
5.17577e-05
0.00259623
-2.4787e-05
4.8588e-05
0.0025772
-2.31827e-05
4.56663e-05
0.0025587
-2.17093e-05
4.29737e-05
0.00254076
-2.03558e-05
4.04921e-05
0.0025234
-1.91116e-05
3.82042e-05
0.00250662
-1.7967e-05
3.60938e-05
0.00249042
-1.69137e-05
3.41459e-05
0.0024748
-1.59438e-05
3.23461e-05
0.00245975
-1.50502e-05
3.06815e-05
-1.42265e-05
2.91402e-05
0.00244524
0.00257747
-7.2296e-05
3.82791e-05
0.00265113
-0.000116527
9.32837e-05
0.00269007
-0.000118085
0.000119681
0.0027111
-0.00011292
0.000128998
0.00272091
-0.000108203
0.000133506
0.00271801
-0.000101843
0.000135495
0.00270258
-9.34447e-05
0.000134134
0.00267732
-8.41483e-05
0.000129629
0.00264539
-7.51487e-05
0.000123147
0.00260904
-6.69556e-05
0.000115754
0.0025698
-5.96582e-05
0.000108056
0.00252881
-5.32176e-05
0.000100336
0.00248706
-4.7568e-05
9.27539e-05
0.00244537
-4.26327e-05
8.54266e-05
0.00240432
-3.83257e-05
7.84448e-05
0.00236435
-3.45599e-05
7.18667e-05
0.00232573
-3.12545e-05
6.57231e-05
0.00228864
-2.83402e-05
6.0025e-05
0.0022532
-2.57592e-05
5.4771e-05
0.00221946
-2.34642e-05
4.99514e-05
0.00218742
-2.14165e-05
4.55511e-05
0.00215708
-1.95833e-05
4.15498e-05
0.00212839
-1.79373e-05
3.7924e-05
0.00210129
-1.64563e-05
3.46475e-05
0.00207572
-1.51219e-05
3.16937e-05
0.0020516
-1.39187e-05
2.90348e-05
0.00202886
-1.2833e-05
2.66445e-05
0.00200741
-1.18532e-05
2.44976e-05
0.00198717
-1.09687e-05
2.25707e-05
0.00196806
-1.01696e-05
2.08411e-05
0.00195001
-9.44682e-06
1.92879e-05
0.00193294
-8.79246e-06
1.78918e-05
-8.19934e-06
1.66352e-05
0.00191679
0.00246464
3.83324e-05
0.00237902
8.89581e-05
0.00227333
0.00011008
0.00216279
0.000115054
0.00204903
0.000114731
0.0019339
0.00011017
0.00182134
0.000101225
0.00171517
8.93495e-05
0.00161766
7.65593e-05
0.00152973
6.42679e-05
0.00145142
5.31822e-05
0.00138232
4.35854e-05
0.00132166
3.55263e-05
0.00126846
2.89004e-05
0.00122174
2.35167e-05
0.00118053
1.91608e-05
0.00114403
1.56364e-05
0.00111153
1.27808e-05
0.00108245
1.04636e-05
0.00105633
8.58202e-06
0.00103276
7.05426e-06
0.00101144
5.81547e-06
0.000992073
4.81354e-06
0.000974442
4.00581e-06
0.000958343
3.35746e-06
0.000943604
2.83809e-06
0.000930072
2.42404e-06
0.000917616
2.09225e-06
0.000906119
1.82798e-06
0.000895478
1.62023e-06
0.000885599
1.45768e-06
0.000876404
1.33014e-06
1.22975e-06
0.000867821
0.00244427
7.17654e-05
2.23e-05
0.00235761
0.000115844
5.9769e-05
0.00226812
0.000116185
8.33887e-05
0.00218083
0.000109599
9.27415e-05
0.00209527
0.000104634
9.56588e-05
0.0020112
9.92512e-05
9.49863e-05
0.00192924
9.23221e-05
9.08669e-05
0.00185047
8.43692e-05
8.3745e-05
0.00177585
7.64019e-05
7.47821e-05
0.00170596
6.89683e-05
6.51838e-05
0.00164117
6.21865e-05
5.57859e-05
0.00158167
5.60335e-05
4.70581e-05
0.00152748
5.04807e-05
3.92361e-05
0.00147846
4.5509e-05
3.24081e-05
0.00143433
4.10901e-05
2.65625e-05
0.00139468
3.71806e-05
2.16244e-05
0.0013591
3.37272e-05
1.74919e-05
0.00132714
3.0675e-05
1.40596e-05
0.00129841
2.79726e-05
1.12271e-05
0.00127251
2.55748e-05
8.90353e-06
0.00124912
2.34418e-05
7.00841e-06
0.00122792
2.15391e-05
5.47235e-06
0.00120866
1.98362e-05
4.2364e-06
0.00119111
1.83077e-05
3.25121e-06
0.00117506
1.69322e-05
2.474e-06
0.00116034
1.56931e-05
1.86675e-06
0.00114679
1.4575e-05
1.3935e-06
0.0011343
1.35642e-05
1.02339e-06
0.00112273
1.26475e-05
7.47207e-07
0.00111199
1.18166e-05
5.463e-07
0.00110198
1.10627e-05
4.02645e-07
0.00109263
1.03774e-05
3.02705e-07
9.75313e-06
2.36139e-07
0.00108387
0.00255625
3.15316e-05
2.22609e-05
0.00262876
7.44026e-05
6.22136e-05
0.00268477
8.9855e-05
9.00049e-05
0.0027291
9.07138e-05
0.000103549
0.00276697
8.95176e-05
0.000110754
0.00279769
8.87466e-05
0.000115285
0.00281983
8.69257e-05
0.000117388
0.00283363
8.33713e-05
0.000116825
0.00284043
7.87008e-05
0.00011405
0.00284153
7.37675e-05
0.000109851
0.00283788
6.9022e-05
0.000104871
0.00283021
6.45546e-05
9.94851e-05
0.00281921
6.0333e-05
9.3899e-05
0.00280556
5.63429e-05
8.82514e-05
0.00278984
5.26021e-05
8.26521e-05
0.00277257
4.91289e-05
7.71868e-05
0.00275418
4.59247e-05
7.19175e-05
0.00273502
4.2976e-05
6.68844e-05
0.00271538
4.02628e-05
6.21132e-05
0.00269552
3.77645e-05
5.76204e-05
0.00267564
3.54617e-05
5.34147e-05
0.0026559
3.33369e-05
4.94969e-05
0.00263642
3.13748e-05
4.58614e-05
0.00261732
2.95629e-05
4.24975e-05
0.00259866
2.7889e-05
3.9395e-05
0.0025805
2.63413e-05
3.65427e-05
0.00256289
2.49086e-05
3.39257e-05
0.00254584
2.35814e-05
3.15272e-05
0.00252937
2.23495e-05
2.93362e-05
0.00251349
2.12041e-05
2.73393e-05
0.00249818
2.01374e-05
2.55204e-05
0.00248344
1.9143e-05
2.38639e-05
1.82147e-05
2.2355e-05
0.00246926
0.00253501
1.22152e-05
2.20495e-05
0.00260661
3.33058e-05
6.22703e-05
0.00268066
4.43359e-05
9.02855e-05
0.00274894
4.62118e-05
0.000103637
0.00281324
4.59719e-05
0.000110593
0.00287433
4.61079e-05
0.000115209
0.00293053
4.6123e-05
0.000118006
0.00298039
4.52524e-05
0.000118552
0.00302369
4.35635e-05
0.000117044
0.00306093
4.1531e-05
0.000114162
0.00309272
3.95001e-05
0.000110544
0.00311955
3.75664e-05
0.00010656
0.00314185
3.57076e-05
0.00010238
0.00316007
3.39035e-05
9.80983e-05
0.00317464
3.21639e-05
9.37949e-05
0.00318599
3.05083e-05
8.95429e-05
0.0031945
2.89474e-05
8.5398e-05
0.00320054
2.74811e-05
8.13952e-05
0.00320442
2.61035e-05
7.75539e-05
0.00320643
2.48074e-05
7.38847e-05
0.00320683
2.35864e-05
7.03924e-05
0.00320584
2.24365e-05
6.70776e-05
0.00320368
2.13534e-05
6.39383e-05
0.00320053
2.03372e-05
6.09699e-05
0.00319653
1.93844e-05
5.81673e-05
0.00319183
1.84895e-05
5.55249e-05
0.00318655
1.76481e-05
5.30356e-05
0.00318079
1.68566e-05
5.06915e-05
0.00317463
1.61116e-05
4.84841e-05
0.00316817
1.54093e-05
4.64053e-05
0.00316146
1.47466e-05
4.44474e-05
0.00315456
1.41207e-05
4.26027e-05
1.35291e-05
4.08638e-05
0.00314752
0.00252783
1.49797e-14
2.19377e-05
0.00259152
-7.19114e-15
6.21274e-05
0.00266416
-2.75004e-14
9.02206e-05
0.0027337
-3.252e-14
0.000103463
0.00279974
-1.2259e-14
0.000110191
0.00286353
-1.0316e-14
0.000114558
0.00292427
-2.02175e-14
0.000117222
0.00298049
-2.7206e-14
0.000117717
0.00303138
-3.40132e-14
0.000116168
0.00307705
-3.87623e-14
0.000113239
0.00311793
-3.83994e-14
0.000109604
0.00315446
-4.65031e-14
0.00010567
0.00318698
-5.07718e-14
0.000101614
0.00321579
-4.45342e-14
9.75205e-05
0.0032412
-3.99437e-14
9.34568e-05
0.00326353
-1.30048e-14
8.94897e-05
0.00328309
-8.55425e-15
8.56704e-05
0.00330016
1.27828e-14
8.20281e-05
0.00331499
1.27339e-14
7.85749e-05
0.0033278
3.96608e-14
7.53128e-05
0.00333881
4.30998e-14
7.22394e-05
0.0033482
6.95792e-14
6.93496e-05
0.00335615
6.77821e-14
6.66355e-05
0.00336279
3.51008e-14
6.40881e-05
0.00336828
8.2805e-14
6.16965e-05
0.00337272
1.11647e-14
5.94486e-05
0.00337623
1.65346e-13
5.73342e-05
0.00337891
8.23131e-14
5.53425e-05
0.00338084
1.86863e-13
5.34631e-05
0.00338209
1.49413e-13
5.16867e-05
0.00338274
1.86116e-14
5.00048e-05
0.00338286
2.87213e-13
4.84097e-05
-2.84838e-14
4.68944e-05
0.00338248
0.00252783
-1.22152e-05
2.19377e-05
0.00259152
-3.33058e-05
6.21274e-05
0.00266416
-4.43359e-05
9.02206e-05
0.0027337
-4.62118e-05
0.000103463
0.00279974
-4.59719e-05
0.000110191
0.00286353
-4.61079e-05
0.000114558
0.00292427
-4.6123e-05
0.000117222
0.00298049
-4.52524e-05
0.000117717
0.00303138
-4.35635e-05
0.000116168
0.00307705
-4.1531e-05
0.000113239
0.00311793
-3.95001e-05
0.000109604
0.00315446
-3.75664e-05
0.00010567
0.00318698
-3.57076e-05
0.000101614
0.00321579
-3.39035e-05
9.75205e-05
0.0032412
-3.21639e-05
9.34568e-05
0.00326353
-3.05083e-05
8.94897e-05
0.00328309
-2.89474e-05
8.56704e-05
0.00330016
-2.74811e-05
8.20281e-05
0.00331499
-2.61035e-05
7.85749e-05
0.0033278
-2.48074e-05
7.53128e-05
0.00333881
-2.35864e-05
7.22394e-05
0.0033482
-2.24365e-05
6.93496e-05
0.00335615
-2.13534e-05
6.66355e-05
0.00336279
-2.03372e-05
6.40881e-05
0.00336828
-1.93844e-05
6.16965e-05
0.00337272
-1.84895e-05
5.94486e-05
0.00337623
-1.76481e-05
5.73342e-05
0.00337891
-1.68566e-05
5.53425e-05
0.00338084
-1.61116e-05
5.34631e-05
0.00338209
-1.54093e-05
5.16867e-05
0.00338274
-1.47466e-05
5.00048e-05
0.00338286
-1.41207e-05
4.84097e-05
-1.35291e-05
4.68944e-05
0.00338248
0.00253501
-3.15316e-05
2.20495e-05
0.00260661
-7.44026e-05
6.22703e-05
0.00268066
-8.9855e-05
9.02855e-05
0.00274894
-9.07138e-05
0.000103637
0.00281324
-8.95176e-05
0.000110593
0.00287433
-8.87466e-05
0.000115209
0.00293053
-8.69257e-05
0.000118006
0.00298039
-8.33713e-05
0.000118552
0.00302369
-7.87008e-05
0.000117044
0.00306093
-7.37675e-05
0.000114162
0.00309272
-6.9022e-05
0.000110544
0.00311955
-6.45546e-05
0.00010656
0.00314185
-6.0333e-05
0.00010238
0.00316007
-5.63429e-05
9.80983e-05
0.00317464
-5.26021e-05
9.37949e-05
0.00318599
-4.91289e-05
8.95429e-05
0.0031945
-4.59247e-05
8.5398e-05
0.00320054
-4.2976e-05
8.13952e-05
0.00320442
-4.02628e-05
7.75539e-05
0.00320643
-3.77645e-05
7.38847e-05
0.00320683
-3.54617e-05
7.03924e-05
0.00320584
-3.33369e-05
6.70776e-05
0.00320368
-3.13748e-05
6.39383e-05
0.00320053
-2.95629e-05
6.09699e-05
0.00319653
-2.7889e-05
5.81673e-05
0.00319183
-2.63413e-05
5.55249e-05
0.00318655
-2.49086e-05
5.30356e-05
0.00318079
-2.35814e-05
5.06915e-05
0.00317463
-2.23495e-05
4.84841e-05
0.00316817
-2.12041e-05
4.64053e-05
0.00316146
-2.01374e-05
4.44474e-05
0.00315456
-1.9143e-05
4.26027e-05
-1.82147e-05
4.08638e-05
0.00314752
0.00255625
-7.17654e-05
2.22609e-05
0.00262876
-0.000115844
6.22136e-05
0.00268477
-0.000116185
9.00049e-05
0.0027291
-0.000109599
0.000103549
0.00276697
-0.000104634
0.000110754
0.00279769
-9.92512e-05
0.000115285
0.00281983
-9.23221e-05
0.000117388
0.00283363
-8.43692e-05
0.000116825
0.00284043
-7.64019e-05
0.00011405
0.00284153
-6.89683e-05
0.000109851
0.00283788
-6.21865e-05
0.000104871
0.00283021
-5.60335e-05
9.94851e-05
0.00281921
-5.04807e-05
9.3899e-05
0.00280556
-4.5509e-05
8.82514e-05
0.00278984
-4.10901e-05
8.26521e-05
0.00277257
-3.71806e-05
7.71868e-05
0.00275418
-3.37272e-05
7.19175e-05
0.00273502
-3.0675e-05
6.68844e-05
0.00271538
-2.79726e-05
6.21132e-05
0.00269552
-2.55748e-05
5.76204e-05
0.00267564
-2.34418e-05
5.34147e-05
0.0026559
-2.15391e-05
4.94969e-05
0.00263642
-1.98362e-05
4.58614e-05
0.00261732
-1.83077e-05
4.24975e-05
0.00259866
-1.69322e-05
3.9395e-05
0.0025805
-1.56931e-05
3.65427e-05
0.00256289
-1.4575e-05
3.39257e-05
0.00254584
-1.35642e-05
3.15272e-05
0.00252937
-1.26475e-05
2.93362e-05
0.00251349
-1.18166e-05
2.73393e-05
0.00249818
-1.10627e-05
2.55204e-05
0.00248344
-1.03774e-05
2.38639e-05
-9.75313e-06
2.2355e-05
0.00246926
0.00244427
2.23e-05
0.00235761
5.9769e-05
0.00226812
8.33887e-05
0.00218083
9.27415e-05
0.00209527
9.56588e-05
0.0020112
9.49863e-05
0.00192924
9.08669e-05
0.00185047
8.3745e-05
0.00177585
7.47821e-05
0.00170596
6.51838e-05
0.00164117
5.57859e-05
0.00158167
4.70581e-05
0.00152748
3.92361e-05
0.00147846
3.24081e-05
0.00143433
2.65625e-05
0.00139468
2.16244e-05
0.0013591
1.74919e-05
0.00132714
1.40596e-05
0.00129841
1.12271e-05
0.00127251
8.90353e-06
0.00124912
7.00841e-06
0.00122792
5.47235e-06
0.00120866
4.2364e-06
0.00119111
3.25121e-06
0.00117506
2.474e-06
0.00116034
1.86675e-06
0.00114679
1.3935e-06
0.0011343
1.02339e-06
0.00112273
7.47207e-07
0.00111199
5.463e-07
0.00110198
4.02645e-07
0.00109263
3.02705e-07
2.36139e-07
0.00108387
0.00243579
7.17572e-05
1.47506e-05
0.00233783
0.000116302
4.14268e-05
0.00224306
0.000116555
6.16069e-05
0.00215429
0.000109309
7.21999e-05
0.00206983
0.000103622
7.65006e-05
0.00198972
9.78955e-05
7.71985e-05
0.00191443
9.09142e-05
7.52396e-05
0.00184425
8.29758e-05
7.09532e-05
0.00177915
7.49719e-05
6.4911e-05
0.00171897
6.74692e-05
5.78971e-05
0.00166353
6.06197e-05
5.06053e-05
0.00161268
5.44038e-05
4.35024e-05
0.00156628
4.87795e-05
3.68613e-05
0.00152413
4.37214e-05
3.08324e-05
0.00148601
3.92093e-05
2.54784e-05
0.00145161
3.52134e-05
2.08041e-05
0.00142063
3.16919e-05
1.67786e-05
0.00139275
2.85963e-05
1.33512e-05
0.00136763
2.58775e-05
1.04627e-05
0.001345
2.34891e-05
8.05119e-06
0.00132456
2.1388e-05
6.05645e-06
0.00130607
1.95353e-05
4.42397e-06
0.00128931
1.78972e-05
3.10305e-06
0.00127406
1.64548e-05
2.04563e-06
0.00126014
1.51794e-05
1.21006e-06
0.0012474
1.4049e-05
5.62934e-07
0.00123566
1.30435e-05
9.02637e-08
0.00122485
1.21611e-05
-3.3137e-07
0.00121485
1.13732e-05
-6.27141e-07
0.00120557
1.06623e-05
-8.31511e-07
0.00119692
1.00189e-05
-9.69635e-07
0.00118885
9.43512e-06
-1.05533e-06
8.90359e-06
-1.09999e-06
0.00118128
0.00254788
3.1334e-05
1.48028e-05
0.00260924
7.41671e-05
4.29886e-05
0.00266028
8.95648e-05
6.59576e-05
0.00270312
9.00347e-05
7.9982e-05
0.00274111
8.82818e-05
8.81059e-05
0.00277416
8.70662e-05
9.30627e-05
0.00280147
8.50179e-05
9.59697e-05
0.00282303
8.13219e-05
9.69211e-05
0.00283952
7.64776e-05
9.60605e-05
0.00285168
7.13347e-05
9.38169e-05
0.0028601
6.63971e-05
9.06771e-05
0.0028652
6.17918e-05
8.70028e-05
0.00286737
5.74882e-05
8.30134e-05
0.00286704
5.34576e-05
7.88455e-05
0.0028646
4.97071e-05
7.45998e-05
0.00286039
4.62524e-05
7.03579e-05
0.00285472
4.30947e-05
6.61848e-05
0.00284785
4.02185e-05
6.21265e-05
0.00284003
3.75998e-05
5.82165e-05
0.00283144
3.52137e-05
5.44784e-05
0.00282228
3.30371e-05
5.09274e-05
0.0028127
3.10501e-05
4.75686e-05
0.00280281
2.92338e-05
4.44058e-05
0.00279275
2.75731e-05
4.14432e-05
0.0027826
2.60508e-05
3.86789e-05
0.00277242
2.46543e-05
3.61087e-05
0.0027623
2.3368e-05
3.37292e-05
0.00275226
2.21806e-05
3.15391e-05
0.00274237
2.10845e-05
2.95224e-05
0.00273264
2.00691e-05
2.76642e-05
0.00272309
1.91251e-05
2.59547e-05
0.00271376
1.82452e-05
2.43842e-05
1.74232e-05
2.29429e-05
0.00270466
0.00252652
1.21039e-05
1.47631e-05