/*--------------------------------*- C++ -*----------------------------------*\
| =========                 |                                                 |
| \\      /  F ield         | OpenFOAM: The Open Source CFD Toolbox           |
|  \\    /   O peration     | Version:  2412                                  |
|   \\  /    A nd           | Website:  www.openfoam.com                      |
|    \\/     M anipulation  |                                                 |
\*---------------------------------------------------------------------------*/
FoamFile
{
    version     2.0;
    format      ascii;
    arch        "LSB;label=32;scalar=64";
    class       surfaceScalarField;
    location    "4.0040539";
    object      phi_0;
}
// * * * * * * * * * * * * * * * * * * * * * * * * * * * * * * * * * * * * * //

dimensions      [0 3 -1 0 0 0 0];

oriented        oriented;

internalField   nonuniform List<scalar> 
45040
(
0.00235263
7.20959e-05
7.52745e-05
0.00212161
0.000111153
0.000119863
0.00188972
0.000109415
0.000122476
0.00167102
0.000101267
0.000117433
0.00147036
9.14938e-05
0.000109168
0.0012944
7.90698e-05
9.68899e-05
0.00114726
6.50397e-05
8.21059e-05
0.00102833
5.15984e-05
6.73255e-05
0.000933868
4.02585e-05
5.42048e-05
0.000859135
3.14481e-05
4.32853e-05
0.00079961
2.49883e-05
3.45365e-05
0.000751437
2.047e-05
2.7703e-05
0.00071159
1.74182e-05
2.24284e-05
0.000677869
1.53818e-05
1.83393e-05
0.000648765
1.39898e-05
1.51148e-05
0.000623275
1.29726e-05
1.2517e-05
0.000600734
1.21554e-05
1.03861e-05
0.000580679
1.14362e-05
8.6188e-06
0.00056277
1.07621e-05
7.14704e-06
0.000546737
1.01096e-05
5.9225e-06
0.000532358
9.47149e-06
4.90784e-06
0.000519437
8.84898e-06
4.07192e-06
0.000507803
8.24651e-06
3.38758e-06
0.000497303
7.66893e-06
2.83075e-06
0.000487803
7.12046e-06
2.38025e-06
0.000479181
6.60442e-06
2.01707e-06
0.000471333
6.12291e-06
1.72497e-06
0.000464167
5.67699e-06
1.48935e-06
0.000457601
5.26646e-06
1.29969e-06
0.000451563
4.89017e-06
1.14766e-06
0.000445991
4.54659e-06
1.02551e-06
0.000440831
4.23385e-06
9.26457e-07
3.94967e-06
8.45213e-07
0.000436036
0.00246447
3.21307e-05
7.5498e-05
0.00237902
7.12209e-05
0.000125376
0.00227429
8.27787e-05
0.000131369
0.00216456
8.13979e-05
0.000129601
0.0020513
7.76949e-05
0.000127057
0.00193647
7.21844e-05
0.000121717
0.00182391
6.41072e-05
0.000113492
0.00171732
5.44106e-05
0.00010378
0.0016189
4.47686e-05
9.39064e-05
0.0015296
3.62915e-05
8.44577e-05
0.00144962
2.93581e-05
7.5609e-05
0.00137872
2.39472e-05
6.74274e-05
0.00131629
1.98876e-05
5.99525e-05
0.00126154
1.69472e-05
5.31941e-05
0.00121353
1.48703e-05
4.71293e-05
0.00117137
1.34153e-05
4.17144e-05
0.00113424
1.23817e-05
3.68979e-05
0.00110143
1.16187e-05
3.26284e-05
0.00107232
1.10213e-05
2.88564e-05
0.00104637
1.05201e-05
2.55346e-05
0.00102315
1.00715e-05
2.26179e-05
0.00100229
9.6516e-06
2.0063e-05
0.000983458
9.24743e-06
1.783e-05
0.000966393
8.85229e-06
1.58821e-05
0.000950864
8.46393e-06
1.41855e-05
0.000936677
8.08293e-06
1.27086e-05
0.000923665
7.71117e-06
1.14235e-05
0.000911687
7.3509e-06
1.03044e-05
0.00090062
7.00424e-06
9.32885e-06
0.00089036
6.67284e-06
8.47731e-06
0.000880816
6.3579e-06
7.73275e-06
0.000871909
6.06072e-06
7.08012e-06
5.77993e-06
6.50671e-06
0.000863572
0.00244465
1.2527e-05
7.4956e-05
0.00235922
3.19284e-05
0.000124722
0.00227178
4.07078e-05
0.000129512
0.00218584
4.10136e-05
0.000126324
0.00210043
3.95664e-05
0.000123533
0.00201576
3.76674e-05
0.00011919
0.0019328
3.46203e-05
0.000112445
0.0018527
3.04294e-05
0.000104085
0.00177633
2.58355e-05
9.53056e-05
0.0017043
2.15375e-05
8.678e-05
0.00163709
1.78541e-05
7.87161e-05
0.00157503
1.48338e-05
7.11666e-05
0.00151832
1.24314e-05
6.41692e-05
0.00146694
1.0576e-05
5.77577e-05
0.00142068
9.18016e-06
5.19433e-05
0.00137924
8.14773e-06
4.67087e-05
0.00134222
7.38763e-06
4.20187e-05
0.00130918
6.82204e-06
3.78305e-05
0.00127971
6.39275e-06
3.40997e-05
0.00125339
6.06041e-06
3.07806e-05
0.00122984
5.79467e-06
2.78307e-05
0.00120869
5.56973e-06
2.523e-05
0.00118963
5.36848e-06
2.29414e-05
0.00117237
5.18092e-06
2.09262e-05
0.00115668
5.00126e-06
1.9151e-05
0.00114235
4.82649e-06
1.75858e-05
0.00112921
4.65541e-06
1.62038e-05
0.00111709
4.48783e-06
1.49814e-05
0.00110587
4.32418e-06
1.38976e-05
0.00109544
4.16512e-06
1.29344e-05
0.00108571
4.01133e-06
1.20758e-05
0.0010766
3.86334e-06
1.13078e-05
3.72128e-06
1.06179e-05
0.00106804
0.00243762
-3.33925e-16
7.49039e-05
0.00234456
-9.56761e-15
0.000124989
0.0022557
-1.35407e-15
0.000129574
0.002171
1.69329e-14
0.00012571
0.00208825
2.83985e-14
0.000122316
0.00200813
1.76625e-14
0.000117792
0.00193164
-6.34736e-15
0.000111104
0.00185926
-3.92817e-14
0.000102813
0.00179105
-5.61293e-14
9.40502e-05
0.00172703
-6.06199e-14
8.55527e-05
0.00166732
-6.21173e-14
7.75622e-05
0.00161204
-6.20692e-14
7.01141e-05
0.00156126
-6.052e-14
6.32174e-05
0.00151494
-5.88971e-14
5.68954e-05
0.00147295
-5.3607e-14
5.1165e-05
0.00143508
-4.67945e-14
4.60187e-05
0.00140104
-3.99252e-14
4.14257e-05
0.00137052
-3.46151e-14
3.7343e-05
0.00134319
-3.58696e-14
3.37224e-05
0.00131873
-3.87378e-14
3.05252e-05
0.0012968
-4.3725e-14
2.7726e-05
0.00127709
-4.24768e-14
2.52712e-05
0.00125934
-3.70252e-14
2.31181e-05
0.0012433
-1.96207e-14
2.12298e-05
0.00122872
-5.22799e-15
1.9573e-05
0.00121543
1.1935e-14
1.81173e-05
0.00120325
2.49497e-14
1.68358e-05
0.00119204
3.35102e-14
1.57046e-05
0.00118166
6.13343e-14
1.47031e-05
0.00117201
7.43455e-14
1.38133e-05
0.001163
1.14279e-13
1.30198e-05
0.00115455
1.29619e-13
1.2309e-05
1.71491e-13
1.16696e-05
0.00114661
0.00243762
-1.2527e-05
7.49039e-05
0.00234456
-3.19284e-05
0.000124989
0.0022557
-4.07078e-05
0.000129574
0.002171
-4.10136e-05
0.00012571
0.00208825
-3.95664e-05
0.000122316
0.00200813
-3.76674e-05
0.000117792
0.00193164
-3.46203e-05
0.000111104
0.00185926
-3.04294e-05
0.000102813
0.00179105
-2.58355e-05
9.40502e-05
0.00172703
-2.15375e-05
8.55527e-05
0.00166732
-1.78541e-05
7.75622e-05
0.00161204
-1.48338e-05
7.01141e-05
0.00156126
-1.24314e-05
6.32174e-05
0.00151494
-1.0576e-05
5.68954e-05
0.00147295
-9.18016e-06
5.1165e-05
0.00143508
-8.14773e-06
4.60187e-05
0.00140104
-7.38764e-06
4.14257e-05
0.00137052
-6.82204e-06
3.7343e-05
0.00134319
-6.39275e-06
3.37224e-05
0.00131873
-6.06041e-06
3.05252e-05
0.0012968
-5.79467e-06
2.7726e-05
0.00127709
-5.56973e-06
2.52712e-05
0.00125934
-5.36848e-06
2.31181e-05
0.0012433
-5.18092e-06
2.12298e-05
0.00122872
-5.00126e-06
1.9573e-05
0.00121543
-4.82649e-06
1.81173e-05
0.00120325
-4.65541e-06
1.68358e-05
0.00119204
-4.48783e-06
1.57046e-05
0.00118166
-4.32418e-06
1.47031e-05
0.00117201
-4.16512e-06
1.38133e-05
0.001163
-4.01133e-06
1.30198e-05
0.00115455
-3.86334e-06
1.2309e-05
-3.72128e-06
1.16696e-05
0.00114661
0.00244465
-3.21307e-05
7.4956e-05
0.00235922
-7.12209e-05
0.000124722
0.00227178
-8.27787e-05
0.000129512
0.00218584
-8.13979e-05
0.000126324
0.00210043
-7.76949e-05
0.000123533
0.00201576
-7.21844e-05
0.00011919
0.0019328
-6.41072e-05
0.000112445
0.0018527
-5.44106e-05
0.000104085
0.00177633
-4.47686e-05
9.53056e-05
0.0017043
-3.62915e-05
8.678e-05
0.00163709
-2.93581e-05
7.87161e-05
0.00157503
-2.39472e-05
7.11666e-05
0.00151832
-1.98876e-05
6.41692e-05
0.00146694
-1.69472e-05
5.77577e-05
0.00142068
-1.48703e-05
5.19433e-05
0.00137924
-1.34153e-05
4.67087e-05
0.00134222
-1.23817e-05
4.20187e-05
0.00130918
-1.16187e-05
3.78305e-05
0.00127971
-1.10213e-05
3.40997e-05
0.00125339
-1.05201e-05
3.07806e-05
0.00122984
-1.00715e-05
2.78307e-05
0.00120869
-9.6516e-06
2.523e-05
0.00118963
-9.24743e-06
2.29414e-05
0.00117237
-8.85229e-06
2.09262e-05
0.00115668
-8.46393e-06
1.9151e-05
0.00114235
-8.08293e-06
1.75858e-05
0.00112921
-7.71117e-06
1.62038e-05
0.00111709
-7.3509e-06
1.49814e-05
0.00110587
-7.00424e-06
1.38976e-05
0.00109544
-6.67284e-06
1.29344e-05
0.00108571
-6.3579e-06
1.20758e-05
0.0010766
-6.06072e-06
1.13078e-05
-5.77993e-06
1.06179e-05
0.00106804
0.00246447
-7.20959e-05
7.5498e-05
0.00237902
-0.000111153
0.000125376
0.00227429
-0.000109415
0.000131369
0.00216456
-0.000101267
0.000129601
0.0020513
-9.14938e-05
0.000127057
0.00193647
-7.90698e-05
0.000121717
0.00182391
-6.50397e-05
0.000113492
0.00171732
-5.15984e-05
0.00010378
0.0016189
-4.02585e-05
9.39064e-05
0.0015296
-3.14481e-05
8.44577e-05
0.00144962
-2.49883e-05
7.5609e-05
0.00137872
-2.047e-05
6.74274e-05
0.00131629
-1.74182e-05
5.99525e-05
0.00126154
-1.53818e-05
5.31941e-05
0.00121353
-1.39898e-05
4.71293e-05
0.00117137
-1.29726e-05
4.17144e-05
0.00113424
-1.21554e-05
3.68979e-05
0.00110143
-1.14362e-05
3.26284e-05
0.00107232
-1.07621e-05
2.88564e-05
0.00104637
-1.01096e-05
2.55346e-05
0.00102315
-9.47149e-06
2.26179e-05
0.00100229
-8.84898e-06
2.0063e-05
0.000983458
-8.24651e-06
1.783e-05
0.000966393
-7.66893e-06
1.58821e-05
0.000950864
-7.12046e-06
1.41855e-05
0.000936677
-6.60442e-06
1.27086e-05
0.000923665
-6.12291e-06
1.14235e-05
0.000911687
-5.67699e-06
1.03044e-05
0.00090062
-5.26646e-06
9.32885e-06
0.00089036
-4.89017e-06
8.47731e-06
0.000880816
-4.54659e-06
7.73275e-06
0.000871909
-4.23385e-06
7.08012e-06
-3.94966e-06
6.50671e-06
0.000863572
0.00235263
7.52745e-05
0.00212161
0.000119863
0.00188972
0.000122476
0.00167102
0.000117433
0.00147036
0.000109168
0.0012944
9.68899e-05
0.00114726
8.21059e-05
0.00102833
6.73255e-05
0.000933868
5.42048e-05
0.000859135
4.32853e-05
0.00079961
3.45365e-05
0.000751437
2.7703e-05
0.00071159
2.24284e-05
0.000677869
1.83393e-05
0.000648765
1.51148e-05
0.000623275
1.2517e-05
0.000600734
1.03861e-05
0.000580679
8.6188e-06
0.00056277
7.14704e-06
0.000546737
5.9225e-06
0.000532358
4.90784e-06
0.000519437
4.07192e-06
0.000507803
3.38758e-06
0.000497303
2.83075e-06
0.000487803
2.38025e-06
0.000479181
2.01707e-06
0.000471333
1.72497e-06
0.000464167
1.48935e-06
0.000457601
1.29969e-06
0.000451563
1.14766e-06
0.000445991
1.02551e-06
0.000440831
9.26457e-07
8.45213e-07
0.000436036
0.00246464
7.22975e-05
3.83321e-05
0.00237902
0.000116528
8.89585e-05
0.00227333
0.000118085
0.00011008
0.00216279
0.00011292
0.000115054
0.00204902
0.000108203
0.000114731
0.0019339
0.000101843
0.00011017
0.00182134
9.34446e-05
0.000101225
0.00171517
8.41483e-05
8.93492e-05
0.00161766
7.51487e-05
7.6559e-05
0.00152973
6.69556e-05
6.42676e-05
0.00145142
5.96582e-05
5.31819e-05
0.00138232
5.32177e-05
4.35852e-05
0.00132166
4.75681e-05
3.55261e-05
0.00126846
4.26328e-05
2.89002e-05
0.00122174
3.83258e-05
2.35165e-05
0.00118053
3.456e-05
1.91606e-05
0.00114403
3.12546e-05
1.56362e-05
0.00111152
2.83403e-05
1.27806e-05
0.00108245
2.57593e-05
1.04634e-05
0.00105633
2.34643e-05
8.58175e-06
0.00103276
2.14166e-05
7.05396e-06
0.00101144
1.95834e-05
5.81514e-06
0.000992073
1.79374e-05
4.81317e-06
0.000974442
1.64564e-05
4.0054e-06
0.000958343
1.51221e-05
3.357e-06
0.000943604
1.39188e-05
2.83755e-06
0.000930072
1.28332e-05
2.42343e-06
0.000917617
1.18534e-05
2.09155e-06
0.00090612
1.09689e-05
1.82715e-06
0.000895479
1.01698e-05
1.61927e-06
0.000885601
9.4471e-06
1.45657e-06
0.000876405
8.79278e-06
1.32886e-06
8.19972e-06
1.22828e-06
0.000867823
0.00257747
3.20443e-05
3.82789e-05
0.00265113
7.4958e-05
9.32841e-05
0.00269008
9.083e-05
0.000119682
0.00271111
9.2492e-05
0.000128999
0.00272092
9.19441e-05
0.000133506
0.00271801
9.09686e-05
0.000135496
0.00270258
8.82366e-05
0.000134134
0.00267733
8.35518e-05
0.000129629
0.00264539
7.78416e-05
0.000123147
0.00260905
7.20046e-05
0.000115754
0.0025698
6.64603e-05
0.000108056
0.00252881
6.12985e-05
0.000100337
0.00248706
5.65116e-05
9.2754e-05
0.00244537
5.20964e-05
8.54268e-05
0.00240432
4.8056e-05
7.84449e-05
0.00236435
4.43817e-05
7.18669e-05
0.00232573
4.10497e-05
6.57232e-05
0.00228864
3.80285e-05
6.00251e-05
0.0022532
3.52857e-05
5.4771e-05
0.00221946
3.27916e-05
4.99515e-05
0.00218742
3.05186e-05
4.55511e-05
0.00215708
2.844e-05
4.15497e-05
0.00212839
2.65349e-05
3.79239e-05
0.00210129
2.47871e-05
3.46474e-05
0.00207572
2.31828e-05
3.16935e-05
0.0020516
2.17095e-05
2.90345e-05
0.00202886
2.0356e-05
2.66442e-05
0.00200741
1.91117e-05
2.44972e-05
0.00198717
1.79672e-05
2.25701e-05
0.00196806
1.69139e-05
2.08404e-05
0.00195001
1.59441e-05
1.9287e-05
0.00193294
1.50505e-05
1.78908e-05
1.42269e-05
1.6634e-05
0.00191679
0.00255683
1.24247e-05
3.7748e-05
0.00263034
3.33981e-05
9.27685e-05
0.00268733
4.45353e-05
0.000118818
0.00273199
4.6745e-05
0.000127413
0.00276927
4.68468e-05
0.000131344
0.00279873
4.70366e-05
0.000133661
0.00281933
4.66799e-05
0.000133403
0.00283144
4.52332e-05
0.000130297
0.00283641
4.29715e-05
0.000125208
0.0028356
4.04258e-05
0.000119167
0.00283005
3.79224e-05
0.000112807
0.00282056
3.55496e-05
0.0001064
0.00280788
3.33028e-05
0.000100062
0.00279268
3.11785e-05
9.38771e-05
0.00277556
2.91864e-05
8.79254e-05
0.00275705
2.73339e-05
8.22669e-05
0.00273757
2.56192e-05
7.69344e-05
0.00271746
2.40335e-05
7.19381e-05
0.002697
2.25656e-05
6.72755e-05
0.00267643
2.12014e-05
6.29381e-05
0.00265594
1.9927e-05
5.89149e-05
0.00263567
1.87452e-05
5.51938e-05
0.00261574
1.76511e-05
5.17576e-05
0.00259623
1.66363e-05
4.85879e-05
0.0025772
1.5694e-05
4.56661e-05
0.0025587
1.48189e-05
4.29735e-05
0.00254077
1.40064e-05
4.04919e-05
0.0025234
1.3252e-05
3.82039e-05
0.00250662
1.25513e-05
3.60934e-05
0.00249043
1.19004e-05
3.41454e-05
0.0024748
1.12956e-05
3.23455e-05
0.00245975
1.07335e-05
3.06808e-05
1.02108e-05
2.91393e-05
0.00244524
0.00254978
7.29856e-15
3.75492e-05
0.00261565
-1.31796e-14
9.25129e-05
0.00267124
-2.94842e-14
0.000118524
0.0027169
-2.43063e-14
0.000126792
0.0027558
-3.66576e-15
0.000130261
0.00278839
-1.491e-15
0.000132239
0.00281433
-6.27371e-15
0.000131847
0.0028337
-1.18447e-14
0.000128677
0.00284722
-2.71789e-14
0.000123502
0.00285582
-2.99756e-14
0.000117374
0.00286032
-3.42617e-14
0.000110985
0.00286135
-4.39631e-14
0.000104634
0.00285945
-4.04033e-14
9.84259e-05
0.00285509
-3.6395e-14
9.24266e-05
0.00284874
-2.96563e-14
8.67036e-05
0.00284078
-1.65773e-14
8.13125e-05
0.00283155
-1.02361e-14
7.62815e-05
0.00282131
3.72926e-15
7.16138e-05
0.0028103
9.30199e-15
6.72977e-05
0.00279871
2.25556e-14
6.33189e-05
0.0027867
2.16711e-14
5.9662e-05
0.00277441
2.56588e-14
5.63057e-05
0.00276195
1.30496e-14
5.32257e-05
0.00274942
2.73133e-14
5.03971e-05
0.00273689
3.25977e-14
4.77966e-05
0.00272442
3.55759e-14
4.54033e-05
0.00271207
7.51034e-14
4.31977e-05
0.00269986
4.3134e-14
4.11614e-05
0.00268784
1.154e-13
3.92778e-05
0.00267602
8.75265e-14
3.75319e-05
0.00266443
1.76286e-13
3.59102e-05
0.00265307
1.87168e-13
3.44008e-05
1.61311e-13
3.29929e-05
0.00264196
0.00254978
-1.24247e-05
3.75492e-05
0.00261565
-3.33981e-05
9.25129e-05
0.00267124
-4.45353e-05
0.000118524
0.0027169
-4.6745e-05
0.000126792
0.0027558
-4.68468e-05
0.000130261
0.00278839
-4.70366e-05
0.000132239
0.00281433
-4.66799e-05
0.000131847
0.0028337
-4.52332e-05
0.000128677
0.00284722
-4.29715e-05
0.000123502
0.00285582
-4.04258e-05
0.000117374
0.00286032
-3.79224e-05
0.000110985
0.00286135
-3.55496e-05
0.000104634
0.00285945
-3.33028e-05
9.84259e-05
0.00285509
-3.11785e-05
9.24266e-05
0.00284874
-2.91864e-05
8.67036e-05
0.00284078
-2.73339e-05
8.13125e-05
0.00283155
-2.56192e-05
7.62815e-05
0.00282131
-2.40335e-05
7.16138e-05
0.0028103
-2.25656e-05
6.72977e-05
0.00279871
-2.12014e-05
6.33189e-05
0.0027867
-1.9927e-05
5.9662e-05
0.00277441
-1.87452e-05
5.63057e-05
0.00276195
-1.76511e-05
5.32257e-05
0.00274942
-1.66363e-05
5.03971e-05
0.00273689
-1.5694e-05
4.77966e-05
0.00272442
-1.48189e-05
4.54033e-05
0.00271207
-1.40064e-05
4.31977e-05
0.00269986
-1.3252e-05
4.11614e-05
0.00268784
-1.25513e-05
3.92778e-05
0.00267602
-1.19004e-05
3.75319e-05
0.00266443
-1.12956e-05
3.59102e-05
0.00265307
-1.07335e-05
3.44008e-05
-1.02108e-05
3.29929e-05
0.00264196
0.00255683
-3.20443e-05
3.7748e-05
0.00263034
-7.4958e-05
9.27685e-05
0.00268733
-9.083e-05
0.000118818
0.00273199
-9.2492e-05
0.000127413
0.00276927
-9.19441e-05
0.000131344
0.00279873
-9.09686e-05
0.000133661
0.00281933
-8.82366e-05
0.000133403
0.00283144
-8.35518e-05
0.000130297
0.00283641
-7.78416e-05
0.000125208
0.0028356
-7.20046e-05
0.000119167
0.00283005
-6.64603e-05
0.000112807
0.00282056
-6.12985e-05
0.0001064
0.00280788
-5.65116e-05
0.000100062
0.00279268
-5.20964e-05
9.38771e-05
0.00277556
-4.8056e-05
8.79254e-05
0.00275705
-4.43817e-05
8.22669e-05
0.00273757
-4.10497e-05
7.69344e-05
0.00271746
-3.80285e-05
7.19381e-05
0.002697
-3.52857e-05
6.72755e-05
0.00267643
-3.27916e-05
6.29381e-05
0.00265594
-3.05186e-05
5.89149e-05
0.00263567
-2.844e-05
5.51938e-05
0.00261574
-2.65349e-05
5.17576e-05
0.00259623
-2.47871e-05
4.85879e-05
0.0025772
-2.31828e-05
4.56661e-05
0.0025587
-2.17095e-05
4.29735e-05
0.00254077
-2.0356e-05
4.04919e-05
0.0025234
-1.91117e-05
3.82039e-05
0.00250662
-1.79672e-05
3.60934e-05
0.00249043
-1.69139e-05
3.41454e-05
0.0024748
-1.59441e-05
3.23455e-05
0.00245975
-1.50505e-05
3.06808e-05
-1.42269e-05
2.91393e-05
0.00244524
0.00257747
-7.22975e-05
3.82789e-05
0.00265113
-0.000116528
9.32841e-05
0.00269008
-0.000118085
0.000119682
0.00271111
-0.00011292
0.000128999
0.00272092
-0.000108203
0.000133506
0.00271801
-0.000101843
0.000135496
0.00270258
-9.34446e-05
0.000134134
0.00267733
-8.41483e-05
0.000129629
0.00264539
-7.51487e-05
0.000123147
0.00260905
-6.69556e-05
0.000115754
0.0025698
-5.96582e-05
0.000108056
0.00252881
-5.32177e-05
0.000100337
0.00248706
-4.75681e-05
9.2754e-05
0.00244537
-4.26328e-05
8.54268e-05
0.00240432
-3.83258e-05
7.84449e-05
0.00236435
-3.456e-05
7.18669e-05
0.00232573
-3.12546e-05
6.57232e-05
0.00228864
-2.83403e-05
6.00251e-05
0.0022532
-2.57593e-05
5.4771e-05
0.00221946
-2.34643e-05
4.99515e-05
0.00218742
-2.14166e-05
4.55511e-05
0.00215708
-1.95834e-05
4.15497e-05
0.00212839
-1.79374e-05
3.79239e-05
0.00210129
-1.64564e-05
3.46474e-05
0.00207572
-1.51221e-05
3.16935e-05
0.0020516
-1.39188e-05
2.90345e-05
0.00202886
-1.28332e-05
2.66442e-05
0.00200741
-1.18534e-05
2.44972e-05
0.00198717
-1.09689e-05
2.25701e-05
0.00196806
-1.01698e-05
2.08404e-05
0.00195001
-9.4471e-06
1.9287e-05
0.00193294
-8.79278e-06
1.78908e-05
-8.19972e-06
1.6634e-05
0.00191679
0.00246464
3.83321e-05
0.00237902
8.89585e-05
0.00227333
0.00011008
0.00216279
0.000115054
0.00204902
0.000114731
0.0019339
0.00011017
0.00182134
0.000101225
0.00171517
8.93492e-05
0.00161766
7.6559e-05
0.00152973
6.42676e-05
0.00145142
5.31819e-05
0.00138232
4.35852e-05
0.00132166
3.55261e-05
0.00126846
2.89002e-05
0.00122174
2.35165e-05
0.00118053
1.91606e-05
0.00114403
1.56362e-05
0.00111152
1.27806e-05
0.00108245
1.04634e-05
0.00105633
8.58175e-06
0.00103276
7.05396e-06
0.00101144
5.81514e-06
0.000992073
4.81317e-06
0.000974442
4.0054e-06
0.000958343
3.357e-06
0.000943604
2.83755e-06
0.000930072
2.42343e-06
0.000917617
2.09155e-06
0.00090612
1.82715e-06
0.000895479
1.61927e-06
0.000885601
1.45657e-06
0.000876405
1.32886e-06
1.22828e-06
0.000867823
0.00244427
7.17671e-05
2.22996e-05
0.00235761
0.000115846
5.97688e-05
0.00226812
0.000116185
8.33892e-05
0.00218083
0.000109599
9.27417e-05
0.00209527
0.000104634
9.56586e-05
0.0020112
9.9251e-05
9.4986e-05
0.00192924
9.23219e-05
9.08666e-05
0.00185047
8.4369e-05
8.37448e-05
0.00177585
7.64017e-05
7.47818e-05
0.00170596
6.89682e-05
6.51835e-05
0.00164117
6.21864e-05
5.57856e-05
0.00158167
5.60334e-05
4.70578e-05
0.00152748
5.04807e-05
3.92358e-05
0.00147846
4.55089e-05
3.24078e-05
0.00143432
4.10901e-05
2.65623e-05
0.00139468
3.71806e-05
2.16241e-05
0.0013591
3.37272e-05
1.74916e-05
0.00132714
3.0675e-05
1.40593e-05
0.00129841
2.79726e-05
1.12267e-05
0.00127251
2.55748e-05
8.90318e-06
0.00124912
2.34418e-05
7.00804e-06
0.00122792
2.15391e-05
5.47194e-06
0.00120866
1.98362e-05
4.23595e-06
0.00119111
1.83077e-05
3.2507e-06
0.00117506
1.69322e-05
2.47342e-06
0.00116034
1.56931e-05
1.86609e-06
0.00114679
1.4575e-05
1.39274e-06
0.0011343
1.35643e-05
1.02248e-06
0.00112273
1.26476e-05
7.46154e-07
0.00111199
1.18167e-05
5.45093e-07
0.00110198
1.10629e-05
4.01261e-07
0.00109263
1.03775e-05
3.01116e-07
9.75331e-06
2.34314e-07
0.00108387
0.00255625
3.15315e-05
2.22606e-05
0.00262877
7.4403e-05
6.22132e-05
0.00268477
8.98557e-05
9.00054e-05
0.00272911
9.07142e-05
0.000103549
0.00276698
8.95177e-05
0.000110754
0.00279769
8.87467e-05
0.000115285
0.00281983
8.69258e-05
0.000117388
0.00283363
8.33714e-05
0.000116825
0.00284043
7.87009e-05
0.00011405
0.00284153
7.37677e-05
0.000109852
0.00283788
6.90221e-05
0.000104871
0.00283021
6.45548e-05
9.94851e-05
0.00281922
6.03331e-05
9.3899e-05
0.00280556
5.63431e-05
8.82515e-05
0.00278984
5.26023e-05
8.26521e-05
0.00277257
4.91291e-05
7.71869e-05
0.00275418
4.59249e-05
7.19175e-05
0.00273502
4.29762e-05
6.68845e-05
0.00271538
4.0263e-05
6.21132e-05
0.00269552
3.77646e-05
5.76204e-05
0.00267564
3.54618e-05
5.34146e-05
0.0026559
3.3337e-05
4.94968e-05
0.00263642
3.13749e-05
4.58612e-05
0.00261732
2.95631e-05
4.24972e-05
0.00259866
2.78891e-05
3.93947e-05
0.0025805
2.63414e-05
3.65423e-05
0.00256289
2.49087e-05
3.39252e-05
0.00254584
2.35815e-05
3.15266e-05
0.00252937
2.23497e-05
2.93355e-05
0.00251349
2.12042e-05
2.73384e-05
0.00249818
2.01376e-05
2.55193e-05
0.00248344
1.91432e-05
2.38626e-05
1.82149e-05
2.23534e-05
0.00246926
0.00253502
1.22151e-05
2.20493e-05
0.00260661
3.33051e-05
6.22699e-05
0.00268066
4.43366e-05
9.02861e-05
0.00274894
4.62122e-05
0.000103637
0.00281324
4.5972e-05
0.000110594
0.00287433
4.61079e-05
0.000115209
0.00293053
4.61231e-05
0.000118006
0.00298039
4.52526e-05
0.000118552
0.00302369
4.35637e-05
0.000117044
0.00306093
4.15311e-05
0.000114162
0.00309272
3.95003e-05
0.000110544
0.00311955
3.75666e-05
0.00010656
0.00314186
3.57077e-05
0.00010238
0.00316007
3.39037e-05
9.80984e-05
0.00317464
3.21641e-05
9.3795e-05
0.00318599
3.05084e-05
8.9543e-05
0.0031945
2.89475e-05
8.53981e-05
0.00320054
2.74813e-05
8.13952e-05
0.00320442
2.61037e-05
7.7554e-05
0.00320643
2.48075e-05
7.38848e-05
0.00320683
2.35865e-05
7.03924e-05
0.00320584
2.24366e-05
6.70776e-05
0.00320368
2.13535e-05
6.39382e-05
0.00320053
2.03373e-05
6.09697e-05
0.00319653
1.93845e-05
5.81671e-05
0.00319183
1.84896e-05
5.55246e-05
0.00318655
1.76482e-05
5.30353e-05
0.00318079
1.68567e-05
5.06912e-05
0.00317463
1.61117e-05
4.84836e-05
0.00316817
1.54094e-05
4.64047e-05
0.00316146
1.47467e-05
4.44467e-05
0.00315456
1.41208e-05
4.26018e-05
1.35292e-05
4.08627e-05
0.00314752
0.00252783
1.1588e-14
2.19375e-05
0.00259152
-6.90441e-15
6.2127e-05
0.00266416
-2.58695e-14
9.02211e-05
0.0027337
-2.69019e-14
0.000103464
0.00279974
-8.92217e-15
0.000110191
0.00286353
-8.07261e-15
0.000114558
0.00292428
-1.66674e-14
0.000117222
0.00298049
-2.40871e-14
0.000117717
0.00303139
-3.47755e-14
0.000116168
0.00307705
-4.09758e-14
0.000113239
0.00311793
-4.25205e-14
0.000109604
0.00315446
-5.19072e-14
0.00010567
0.00318698
-5.30712e-14
0.000101614
0.00321579
-4.43422e-14
9.75204e-05
0.0032412
-3.61193e-14
9.34568e-05
0.00326353
-9.56672e-15
8.94897e-05
0.00328309
-6.73705e-15
8.56703e-05
0.00330016
1.42563e-14
8.2028e-05
0.00331499
1.56791e-14
7.85748e-05
0.0033278
4.43899e-14
7.53127e-05
0.00333881
4.67135e-14
7.22393e-05
0.0033482
7.19207e-14
6.93495e-05
0.00335615
5.66714e-14
6.66353e-05
0.00336279
3.60327e-14
6.40879e-05
0.00336828
7.71823e-14
6.16962e-05
0.00337272
2.95703e-14
5.94483e-05
0.00337623
1.81812e-13
5.73339e-05
0.00337891
8.10746e-14
5.53421e-05
0.00338084
1.99385e-13
5.34627e-05
0.00338209
1.02589e-13
5.16862e-05
0.00338275
4.87701e-14
5.00041e-05
0.00338286
2.77554e-13
4.84088e-05
1.04628e-14
4.68934e-05
0.00338249
0.00252783
-1.22151e-05
2.19375e-05
0.00259152
-3.33051e-05
6.2127e-05
0.00266416
-4.43366e-05
9.02211e-05
0.0027337
-4.62122e-05
0.000103464
0.00279974
-4.5972e-05
0.000110191
0.00286353
-4.61079e-05
0.000114558
0.00292428
-4.61231e-05
0.000117222
0.00298049
-4.52526e-05
0.000117717
0.00303139
-4.35637e-05
0.000116168
0.00307705
-4.15311e-05
0.000113239
0.00311793
-3.95003e-05
0.000109604
0.00315446
-3.75666e-05
0.00010567
0.00318698
-3.57077e-05
0.000101614
0.00321579
-3.39037e-05
9.75204e-05
0.0032412
-3.21641e-05
9.34568e-05
0.00326353
-3.05084e-05
8.94897e-05
0.00328309
-2.89475e-05
8.56703e-05
0.00330016
-2.74813e-05
8.2028e-05
0.00331499
-2.61037e-05
7.85748e-05
0.0033278
-2.48075e-05
7.53127e-05
0.00333881
-2.35865e-05
7.22393e-05
0.0033482
-2.24366e-05
6.93495e-05
0.00335615
-2.13535e-05
6.66353e-05
0.00336279
-2.03373e-05
6.40879e-05
0.00336828
-1.93845e-05
6.16962e-05
0.00337272
-1.84896e-05
5.94483e-05
0.00337623
-1.76482e-05
5.73339e-05
0.00337891
-1.68567e-05
5.53421e-05
0.00338084
-1.61117e-05
5.34627e-05
0.00338209
-1.54094e-05
5.16862e-05
0.00338275
-1.47467e-05
5.00041e-05
0.00338286
-1.41208e-05
4.84088e-05
-1.35292e-05
4.68934e-05
0.00338249
0.00253502
-3.15315e-05
2.20493e-05
0.00260661
-7.4403e-05
6.22699e-05
0.00268066
-8.98557e-05
9.02861e-05
0.00274894
-9.07142e-05
0.000103637
0.00281324
-8.95177e-05
0.000110594
0.00287433
-8.87467e-05
0.000115209
0.00293053
-8.69258e-05
0.000118006
0.00298039
-8.33714e-05
0.000118552
0.00302369
-7.87009e-05
0.000117044
0.00306093
-7.37677e-05
0.000114162
0.00309272
-6.90221e-05
0.000110544
0.00311955
-6.45548e-05
0.00010656
0.00314186
-6.03331e-05
0.00010238
0.00316007
-5.63431e-05
9.80984e-05
0.00317464
-5.26023e-05
9.3795e-05
0.00318599
-4.91291e-05
8.9543e-05
0.0031945
-4.59249e-05
8.53981e-05
0.00320054
-4.29762e-05
8.13952e-05
0.00320442
-4.0263e-05
7.7554e-05
0.00320643
-3.77646e-05
7.38848e-05
0.00320683
-3.54618e-05
7.03924e-05
0.00320584
-3.3337e-05
6.70776e-05
0.00320368
-3.13749e-05
6.39382e-05
0.00320053
-2.95631e-05
6.09697e-05
0.00319653
-2.78891e-05
5.81671e-05
0.00319183
-2.63414e-05
5.55246e-05
0.00318655
-2.49087e-05
5.30353e-05
0.00318079
-2.35815e-05
5.06912e-05
0.00317463
-2.23497e-05
4.84836e-05
0.00316817
-2.12042e-05
4.64047e-05
0.00316146
-2.01376e-05
4.44467e-05
0.00315456
-1.91432e-05
4.26018e-05
-1.82149e-05
4.08627e-05
0.00314752
0.00255625
-7.17671e-05
2.22606e-05
0.00262877
-0.000115846
6.22132e-05
0.00268477
-0.000116185
9.00054e-05
0.00272911
-0.000109599
0.000103549
0.00276698
-0.000104634
0.000110754
0.00279769
-9.9251e-05
0.000115285
0.00281983
-9.23219e-05
0.000117388
0.00283363
-8.4369e-05
0.000116825
0.00284043
-7.64017e-05
0.00011405
0.00284153
-6.89682e-05
0.000109852
0.00283788
-6.21864e-05
0.000104871
0.00283021
-5.60334e-05
9.94851e-05
0.00281922
-5.04807e-05
9.3899e-05
0.00280556
-4.55089e-05
8.82515e-05
0.00278984
-4.10901e-05
8.26521e-05
0.00277257
-3.71806e-05
7.71869e-05
0.00275418
-3.37272e-05
7.19175e-05
0.00273502
-3.0675e-05
6.68845e-05
0.00271538
-2.79726e-05
6.21132e-05
0.00269552
-2.55748e-05
5.76204e-05
0.00267564
-2.34418e-05
5.34146e-05
0.0026559
-2.15391e-05
4.94968e-05
0.00263642
-1.98362e-05
4.58612e-05
0.00261732
-1.83077e-05
4.24972e-05
0.00259866
-1.69322e-05
3.93947e-05
0.0025805
-1.56931e-05
3.65423e-05
0.00256289
-1.4575e-05
3.39252e-05
0.00254584
-1.35643e-05
3.15266e-05
0.00252937
-1.26476e-05
2.93355e-05
0.00251349
-1.18167e-05
2.73384e-05
0.00249818
-1.10629e-05
2.55193e-05
0.00248344
-1.03775e-05
2.38626e-05
-9.75331e-06
2.23534e-05
0.00246926
0.00244427
2.22996e-05
0.00235761
5.97688e-05
0.00226812
8.33892e-05
0.00218083
9.27417e-05
0.00209527
9.56586e-05
0.0020112
9.4986e-05
0.00192924
9.08666e-05
0.00185047
8.37448e-05
0.00177585
7.47818e-05
0.00170596
6.51835e-05
0.00164117
5.57856e-05
0.00158167
4.70578e-05
0.00152748
3.92358e-05
0.00147846
3.24078e-05
0.00143432
2.65623e-05
0.00139468
2.16241e-05
0.0013591
1.74916e-05
0.00132714
1.40593e-05
0.00129841
1.12267e-05
0.00127251
8.90318e-06
0.00124912
7.00804e-06
0.00122792
5.47194e-06
0.00120866
4.23595e-06
0.00119111
3.2507e-06
0.00117506
2.47342e-06
0.00116034
1.86609e-06
0.00114679
1.39274e-06
0.0011343
1.02248e-06
0.00112273
7.46154e-07
0.00111199
5.45093e-07
0.00110198
4.01261e-07
0.00109263
3.01116e-07
2.34314e-07
0.00108387
0.00243579
7.1759e-05
1.47504e-05
0.00233783
0.000116303
4.14266e-05
0.00224306
0.000116555
6.16071e-05
0.00215429
0.000109308
7.22001e-05
0.00206983
0.000103621
7.65006e-05
0.00198972
9.78951e-05
7.71984e-05
0.00191443
9.09138e-05
7.52395e-05
0.00184425
8.29753e-05
7.0953e-05
0.00177915
7.49716e-05
6.49108e-05
0.00171897
6.74689e-05
5.78969e-05
0.00166353
6.06194e-05
5.06051e-05
0.00161268
5.44035e-05
4.35022e-05
0.00156627
4.87792e-05
3.68612e-05
0.00152413
4.37211e-05
3.08323e-05
0.001486
3.9209e-05
2.54782e-05
0.00145161
3.52132e-05
2.0804e-05
0.00142063
3.16917e-05
1.67784e-05
0.00139274
2.85961e-05
1.3351e-05
0.00136763
2.58773e-05
1.04625e-05
0.001345
2.34889e-05
8.05095e-06
0.00132456
2.13878e-05
6.05617e-06
0.00130607
1.95352e-05
4.42365e-06
0.00128931
1.78971e-05
3.10267e-06
0.00127406
1.64547e-05
2.04519e-06
0.00126014
1.51793e-05
1.20954e-06
0.0012474
1.4049e-05
5.62337e-07
0.00123566
1.30435e-05
8.96601e-08
0.00122485
1.21611e-05
-3.32337e-07
0.00121485
1.13733e-05
-6.28199e-07
0.00120557
1.06624e-05
-8.32723e-07
0.00119692
1.0019e-05
-9.71042e-07
0.00118884
9.43529e-06
-1.05696e-06
8.90381e-06
-1.10189e-06
0.00118128
0.00254788
3.13339e-05
1.48026e-05
0.00260924
7.41673e-05
4.29882e-05
0.00266028
8.95654e-05
6.59578e-05
0.00270312
9.00348e-05
7.99822e-05
0.00274111
8.82818e-05
8.81061e-05
0.00277416
8.70661e-05
9.30628e-05
0.00280148
8.50177e-05
9.59696e-05
0.00282303
8.13218e-05
9.69211e-05
0.00283952
7.64775e-05
9.60604e-05
0.00285169
7.13346e-05
9.38169e-05
0.0028601
6.6397e-05
9.06771e-05
0.0028652
6.17917e-05
8.70027e-05
0.00286737
5.74881e-05
8.30133e-05
0.00286704
5.34575e-05
7.88455e-05
0.0028646
4.9707e-05
7.45997e-05
0.00286039
4.62523e-05
7.03579e-05
0.00285472
4.30946e-05
6.61847e-05
0.00284785
4.02184e-05
6.21264e-05
0.00284003
3.75997e-05
5.82164e-05
0.00283144
3.52136e-05
5.44783e-05
0.00282228
3.3037e-05
5.09273e-05
0.0028127
3.105e-05
4.75684e-05
0.00280282
2.92338e-05
4.44056e-05
0.00279275
2.7573e-05
4.14429e-05
0.0027826
2.60508e-05
3.86786e-05
0.00277242
2.46543e-05
3.61083e-05
0.0027623
2.3368e-05
3.37287e-05
0.00275226
2.21806e-05
3.15386e-05
0.00274237
2.10845e-05
2.95217e-05
0.00273264
2.00692e-05
2.76634e-05
0.0027231
1.91252e-05
2.59536e-05
0.00271376
1.82453e-05
2.4383e-05
1.74233e-05
2.29415e-05
0.00270466
0.00252652
1.21038e-05
1.4763e-05
0.00258661
3.30962e-05