/*--------------------------------*- C++ -*----------------------------------*\
| =========                 |                                                 |
| \\      /  F ield         | OpenFOAM: The Open Source CFD Toolbox           |
|  \\    /   O peration     | Version:  2412                                  |
|   \\  /    A nd           | Website:  www.openfoam.com                      |
|    \\/     M anipulation  |                                                 |
\*---------------------------------------------------------------------------*/
FoamFile
{
    version     2.0;
    format      ascii;
    arch        "LSB;label=32;scalar=64";
    class       volVectorField;
    location    "4.0040539";
    object      U;
}
// * * * * * * * * * * * * * * * * * * * * * * * * * * * * * * * * * * * * * //

dimensions      [0 1 -1 0 0 0 0];

internalField   nonuniform List<vector> 
16000
(
(0.92912 0.0156688 0.0161982)
(0.877694 0.0275349 0.0289874)
(0.809317 0.0277589 0.0299868)
(0.720531 0.0242404 0.0269595)
(0.629513 0.0202775 0.023139)
(0.549769 0.0161691 0.0189117)
(0.484581 0.012061 0.0145374)
(0.432286 0.00846673 0.0105927)
(0.390464 0.00577038 0.00748558)
(0.357155 0.00399687 0.00526244)
(0.330657 0.0029546 0.00376056)
(0.309392 0.00241302 0.00277668)
(0.292 0.00217609 0.00213428)
(0.277441 0.00209583 0.00169776)
(0.264984 0.00207289 0.0013752)
(0.25414 0.00205146 0.00111428)
(0.244585 0.00200796 0.000891084)
(0.236103 0.00193785 0.00069739)
(0.228537 0.00184538 0.000531335)
(0.221771 0.00173759 0.000392394)
(0.215706 0.00162136 0.00027943)
(0.210261 0.00150233 0.000190267)
(0.205362 0.00138473 0.000121933)
(0.200946 0.00127145 7.10961e-05)
(0.196955 0.00116442 3.44849e-05)
(0.193339 0.00106481 9.03268e-06)
(0.190052 0.000973205 -7.84821e-06)
(0.187055 0.000889794 -1.84318e-05)
(0.184314 0.000814389 -2.44088e-05)
(0.181798 0.000746553 -2.70657e-05)
(0.17948 0.000685764 -2.74696e-05)
(0.177337 0.000631472 -2.64487e-05)
(0.175348 0.000583012 -2.45546e-05)
(0.964172 0.0222749 0.0163047)
(0.952969 0.0429729 0.03139)
(0.933152 0.0477284 0.0346397)
(0.895609 0.04688 0.033306)
(0.84755 0.0444921 0.0309611)
(0.797895 0.0407 0.0281328)
(0.750809 0.035523 0.024768)
(0.707037 0.0296977 0.021113)
(0.666401 0.0241035 0.0175715)
(0.628994 0.019284 0.014423)
(0.595112 0.0154233 0.0117603)
(0.56491 0.012494 0.00956215)
(0.538279 0.0103691 0.00776852)
(0.51492 0.00887865 0.0063157)
(0.494455 0.00784771 0.00514425)
(0.476506 0.00712397 0.00420099)
(0.460724 0.00659137 0.00344062)
(0.4468 0.00617026 0.0028265)
(0.434468 0.00581055 0.00232994)
(0.423499 0.00548358 0.00192845)
(0.413703 0.00517418 0.00160429)
(0.404916 0.00487599 0.00134286)
(0.397001 0.00458721 0.0011322)
(0.389842 0.00430809 0.000962597)
(0.38334 0.00403978 0.000826149)
(0.377411 0.0037837 0.000716317)
(0.371983 0.00354113 0.000627733)
(0.366995 0.00331303 0.000556022)
(0.362394 0.0030999 0.000497714)
(0.358136 0.00290177 0.000450006)
(0.354182 0.00271838 0.000410611)
(0.350497 0.00254931 0.000377662)
(0.347053 0.00239412 0.000349818)
(0.963606 0.00898169 0.0161272)
(0.946209 0.0199936 0.030826)
(0.926602 0.0239009 0.0336447)
(0.896707 0.0240323 0.0319943)
(0.860535 0.0231282 0.0296249)
(0.823716 0.0217655 0.0271289)
(0.788879 0.0197765 0.0242803)
(0.756233 0.0172552 0.0211085)
(0.725275 0.0145887 0.0179002)
(0.695787 0.012125 0.0149234)
(0.66794 0.0100261 0.0123048)
(0.642023 0.00831686 0.0100594)
(0.618228 0.00696796 0.00815952)
(0.596606 0.00593475 0.00657218)
(0.577101 0.0051659 0.00526611)
(0.559596 0.00460721 0.00420787)
(0.54394 0.00420702 0.00336145)
(0.529967 0.00392045 0.0026913)
(0.517504 0.00371127 0.00216524)
(0.50638 0.00355147 0.00175541)
(0.496438 0.00342177 0.00143864)
(0.487527 0.00330903 0.00119433)
(0.47951 0.00320455 0.00100612)
(0.472268 0.00310309 0.000861791)
(0.465697 0.0030019 0.000752061)
(0.459709 0.00289998 0.00066949)
(0.454226 0.00279735 0.000608005)
(0.449184 0.00269456 0.000562644)
(0.444526 0.00259244 0.000529409)
(0.440204 0.00249181 0.000505115)
(0.43618 0.00239346 0.000487243)
(0.432417 0.00229807 0.000473831)
(0.428887 0.00220637 0.000463274)
(0.963608 0.00249508 0.0161503)
(0.942837 0.00596692 0.0309873)
(0.920288 0.00746066 0.0337911)
(0.889575 0.00767058 0.0320249)
(0.854426 0.00748011 0.029536)
(0.819535 0.00717468 0.0270091)
(0.787099 0.00669753 0.0242031)
(0.757269 0.00602334 0.0210891)
(0.729465 0.005247 0.0179173)
(0.703257 0.00448522 0.0149546)
(0.678576 0.00380474 0.0123378)
(0.65555 0.00322526 0.0100861)
(0.634303 0.00274656 0.00816891)
(0.614876 0.00236232 0.00655241)
(0.597229 0.00206231 0.00520922)
(0.581282 0.00183303 0.00411233)
(0.566927 0.00165992 0.0032311)
(0.554043 0.00152942 0.002533)
(0.542501 0.00143013 0.00198699)
(0.532171 0.0013523 0.0015655)
(0.522918 0.00128962 0.00124226)
(0.514615 0.00123726 0.000995692)
(0.507147 0.00119153 0.00080916)
(0.500406 0.00114997 0.000670011)
(0.494299 0.00111107 0.000568332)
(0.48874 0.00107394 0.000496116)
(0.483658 0.00103812 0.000446769)
(0.478989 0.00100341 0.000414844)
(0.474679 0.000969719 0.00039587)
(0.470681 0.000937081 0.000386248)
(0.466956 0.000905546 0.000383126)
(0.46347 0.000875196 0.000384271)
(0.460195 0.000846036 0.000387932)
(0.963608 -0.00249508 0.0161503)
(0.942837 -0.00596692 0.0309873)
(0.920288 -0.00746066 0.0337911)
(0.889575 -0.00767058 0.0320249)
(0.854426 -0.00748011 0.029536)
(0.819535 -0.00717468 0.0270091)
(0.787099 -0.00669753 0.0242031)
(0.757269 -0.00602334 0.0210891)
(0.729465 -0.005247 0.0179173)
(0.703257 -0.00448522 0.0149546)
(0.678576 -0.00380474 0.0123378)
(0.65555 -0.00322526 0.0100861)
(0.634303 -0.00274656 0.00816891)
(0.614876 -0.00236232 0.00655241)
(0.597229 -0.00206231 0.00520922)
(0.581282 -0.00183303 0.00411233)
(0.566927 -0.00165992 0.0032311)
(0.554043 -0.00152942 0.002533)
(0.542501 -0.00143013 0.00198699)
(0.532171 -0.0013523 0.0015655)
(0.522918 -0.00128962 0.00124226)
(0.514615 -0.00123726 0.000995692)
(0.507147 -0.00119153 0.00080916)
(0.500406 -0.00114997 0.000670011)
(0.494299 -0.00111107 0.000568332)
(0.48874 -0.00107394 0.000496116)
(0.483658 -0.00103812 0.000446769)
(0.478989 -0.00100341 0.000414844)
(0.474679 -0.000969719 0.00039587)
(0.470681 -0.000937081 0.000386248)
(0.466956 -0.000905546 0.000383126)
(0.46347 -0.000875196 0.000384271)
(0.460195 -0.000846036 0.000387932)
(0.963606 -0.00898169 0.0161272)
(0.946209 -0.0199936 0.030826)
(0.926602 -0.0239009 0.0336447)
(0.896707 -0.0240323 0.0319943)
(0.860535 -0.0231282 0.0296249)
(0.823716 -0.0217655 0.0271289)
(0.788879 -0.0197765 0.0242803)
(0.756233 -0.0172552 0.0211085)
(0.725275 -0.0145887 0.0179002)
(0.695787 -0.012125 0.0149234)
(0.66794 -0.0100261 0.0123048)
(0.642023 -0.00831686 0.0100594)
(0.618228 -0.00696796 0.00815952)
(0.596606 -0.00593475 0.00657218)
(0.577101 -0.0051659 0.00526611)
(0.559596 -0.00460721 0.00420787)
(0.54394 -0.00420702 0.00336145)
(0.529967 -0.00392045 0.0026913)
(0.517504 -0.00371127 0.00216524)
(0.50638 -0.00355147 0.00175541)
(0.496438 -0.00342177 0.00143864)
(0.487527 -0.00330903 0.00119433)
(0.47951 -0.00320455 0.00100612)
(0.472268 -0.00310309 0.000861791)
(0.465697 -0.0030019 0.000752061)
(0.459709 -0.00289998 0.00066949)
(0.454226 -0.00279735 0.000608005)
(0.449184 -0.00269456 0.000562644)
(0.444526 -0.00259244 0.000529409)
(0.440204 -0.00249181 0.000505115)
(0.43618 -0.00239346 0.000487243)
(0.432417 -0.00229807 0.000473831)
(0.428887 -0.00220637 0.000463274)
(0.964172 -0.0222749 0.0163047)
(0.952969 -0.0429729 0.03139)
(0.933152 -0.0477284 0.0346397)
(0.895609 -0.04688 0.033306)
(0.84755 -0.0444921 0.0309611)
(0.797895 -0.0407 0.0281328)
(0.750809 -0.035523 0.024768)
(0.707037 -0.0296977 0.021113)
(0.666401 -0.0241035 0.0175715)
(0.628994 -0.019284 0.014423)
(0.595112 -0.0154233 0.0117603)
(0.56491 -0.012494 0.00956215)
(0.538279 -0.0103691 0.00776852)
(0.51492 -0.00887865 0.0063157)
(0.494455 -0.00784771 0.00514425)
(0.476506 -0.00712397 0.00420099)
(0.460724 -0.00659137 0.00344062)
(0.4468 -0.00617026 0.0028265)
(0.434468 -0.00581055 0.00232994)
(0.423499 -0.00548358 0.00192845)
(0.413703 -0.00517418 0.00160429)
(0.404916 -0.00487599 0.00134286)
(0.397001 -0.00458721 0.0011322)
(0.389842 -0.00430809 0.000962597)
(0.38334 -0.00403978 0.000826149)
(0.377411 -0.0037837 0.000716317)
(0.371983 -0.00354113 0.000627733)
(0.366995 -0.00331303 0.000556022)
(0.362394 -0.0030999 0.000497714)
(0.358136 -0.00290177 0.000450006)
(0.354182 -0.00271838 0.000410611)
(0.350497 -0.00254931 0.000377662)
(0.347053 -0.00239412 0.000349818)
(0.92912 -0.0156688 0.0161982)
(0.877694 -0.0275349 0.0289874)
(0.809317 -0.0277589 0.0299868)
(0.720531 -0.0242404 0.0269595)
(0.629513 -0.0202775 0.023139)
(0.549769 -0.0161691 0.0189117)
(0.484581 -0.012061 0.0145374)
(0.432286 -0.00846673 0.0105927)
(0.390464 -0.00577038 0.00748558)
(0.357155 -0.00399687 0.00526244)
(0.330657 -0.0029546 0.00376056)
(0.309392 -0.00241302 0.00277668)
(0.292 -0.00217609 0.00213428)
(0.277441 -0.00209583 0.00169776)
(0.264984 -0.00207289 0.0013752)
(0.25414 -0.00205146 0.00111428)
(0.244585 -0.00200796 0.000891084)
(0.236103 -0.00193785 0.00069739)
(0.228537 -0.00184538 0.000531335)
(0.221771 -0.00173759 0.000392394)
(0.215706 -0.00162136 0.00027943)
(0.210261 -0.00150233 0.000190267)
(0.205362 -0.00138473 0.000121933)
(0.200946 -0.00127145 7.10961e-05)
(0.196955 -0.00116442 3.44849e-05)
(0.193339 -0.00106481 9.03269e-06)
(0.190052 -0.000973205 -7.8482e-06)
(0.187055 -0.000889794 -1.84318e-05)
(0.184314 -0.000814389 -2.44088e-05)
(0.181798 -0.000746553 -2.70657e-05)
(0.17948 -0.000685764 -2.74696e-05)
(0.177337 -0.000631472 -2.64487e-05)
(0.175348 -0.000583012 -2.45546e-05)
(0.964197 0.0157744 0.024125)
(0.952999 0.029956 0.0480981)
(0.933054 0.0324587 0.0555689)
(0.895181 0.0306217 0.0566567)
(0.846754 0.028074 0.0553182)
(0.796864 0.0252827 0.0518192)
(0.749716 0.0221072 0.0463854)
(0.706045 0.0187401 0.0399058)
(0.665683 0.0155611 0.0333492)
(0.628734 0.0128274 0.0273396)
(0.59547 0.0106017 0.0221577)
(0.565983 0.00883151 0.0178728)
(0.540082 0.00743385 0.0144333)
(0.5174 0.00633103 0.011718)
(0.497512 0.0054568 0.00958085)
(0.480012 0.00475598 0.00788634)
(0.464543 0.00418468 0.00652625)
(0.450802 0.00371009 0.00542134)
(0.438534 0.00330892 0.00451548)
(0.427533 0.00296498 0.00376872)
(0.417627 0.00266691 0.00315184)
(0.408674 0.00240641 0.00264259)
(0.400557 0.00217738 0.00222323)
(0.393176 0.00197528 0.00187906)
(0.386444 0.00179657 0.00159762)
(0.380289 0.00163833 0.0013679)
(0.374646 0.00149813 0.00118049)
(0.369458 0.00137376 0.00102719)
(0.364676 0.0012634 0.000902287)
(0.360256 0.00116529 0.000800949)
(0.356158 0.00107791 0.000718453)
(0.352349 0.000999949 0.000650661)
(0.348798 0.000930246 0.000594334)
(1.00072 0.0222637 0.0241276)
(1.0334 0.0448104 0.0500841)
(1.06494 0.0513708 0.0595557)
(1.08439 0.0519075 0.0623346)
(1.09137 0.0513057 0.0632318)
(1.09029 0.0501295 0.0629121)
(1.08471 0.0479884 0.061145)
(1.0761 0.0449545 0.0581185)
(1.06486 0.0414773 0.0543425)
(1.05136 0.0379631 0.0502688)
(1.03619 0.0346195 0.0461598)
(1.02 0.0315118 0.0421423)
(1.00331 0.0286532 0.0382858)
(0.98653 0.026046 0.034638)
(0.969926 0.0236874 0.0312316)
(0.953686 0.0215663 0.028084)
(0.937942 0.0196642 0.0252002)
(0.922783 0.0179595 0.0225762)
(0.908266 0.0164302 0.0202026)
(0.894421 0.0150562 0.0180667)
(0.88126 0.0138192 0.016154)
(0.868783 0.0127031 0.0144483)
(0.856976 0.0116939 0.0129329)
(0.84582 0.01078 0.0115908)
(0.835289 0.00995172 0.0104056)
(0.825356 0.00920052 0.0093609)
(0.815988 0.00851896 0.00844155)
(0.807154 0.00790039 0.00763305)
(0.798821 0.00733879 0.0069224)
(0.790956 0.00682867 0.00629778)
(0.78353 0.00636506 0.00574845)
(0.776511 0.00594338 0.00526472)
(0.769871 0.00555961 0.00483797)
(1.00031 0.00891982 0.0239207)
(1.02726 0.020876 0.0500926)
(1.05861 0.0259656 0.0593969)
(1.08484 0.0272452 0.0617124)
(1.10329 0.0274684 0.0622879)
(1.11572 0.0274775 0.0621266)
(1.12438 0.0270881 0.060904)
(1.13035 0.026153 0.0585651)
(1.13384 0.0248234 0.0554638)
(1.13489 0.0233448 0.0520166)
(1.13369 0.0218779 0.0484918)
(1.13062 0.020481 0.0450108)
(1.12609 0.0191629 0.0416254)
(1.12042 0.0179243 0.0383712)
(1.11389 0.0167678 0.0352803)
(1.10672 0.0156953 0.0323772)
(1.09908 0.0147051 0.0296753)
(1.09112 0.0137924 0.0271778)
(1.08298 0.0129507 0.0248816)
(1.07475 0.0121737 0.0227797)
(1.06652 0.0114543 0.020863)
(1.05835 0.0107866 0.019121)
(1.05029 0.0101656 0.0175422)
(1.04239 0.00958741 0.0161147)
(1.03467 0.00904874 0.0148269)
(1.02716 0.00854682 0.0136671)
(1.01987 0.00807919 0.012624)
(1.0128 0.00764353 0.0116863)
(1.00597 0.00723757 0.0108435)
(0.999371 0.00685922 0.0100858)
(0.993005 0.00650659 0.00940414)
(0.986869 0.00617785 0.00879013)
(0.980956 0.00587132 0.00823618)
(1.00037 0.00247946 0.0238505)
(1.02415 0.00620859 0.0500846)
(1.05255 0.00807656 0.059363)
(1.07765 0.00868965 0.0614666)
(1.09667 0.00886507 0.061757)
(1.11061 0.00896705 0.0614118)
(1.12128 0.00897216 0.0601323)
(1.12976 0.00880808 0.0577932)
(1.13632 0.00849695 0.0546938)
(1.14094 0.00811309 0.0512505)
(1.14369 0.00771414 0.0477526)
(1.14479 0.00732338 0.0443302)
(1.14455 0.006945 0.0410282)
(1.14322 0.0065797 0.0378711)
(1.14103 0.00622954 0.0348847)
(1.13812 0.00589675 0.0320917)
(1.13465 0.00558244 0.0295043)
(1.13073 0.00528647 0.0271242)
(1.12646 0.00500801 0.0249457)
(1.12191 0.00474593 0.0229597)
(1.11717 0.00449843 0.0211545)
(1.1123 0.00426439 0.0195175)
(1.10733 0.00404311 0.0180362)
(1.10232 0.00383407 0.0166981)
(1.0973 0.00363681 0.015491)
(1.09229 0.00345092 0.014403)
(1.08731 0.00327604 0.0134227)
(1.08239 0.00311178 0.0125394)
(1.07754 0.00295766 0.0117431)
(1.07277 0.00281322 0.0110246)
(1.06808 0.00267795 0.0103754)
(1.06349 0.00255137 0.00978785)
(1.05899 0.00243298 0.00925511)
(1.00037 -0.00247946 0.0238505)
(1.02415 -0.00620859 0.0500846)
(1.05255 -0.00807656 0.059363)
(1.07765 -0.00868965 0.0614666)
(1.09667 -0.00886507 0.061757)
(1.11061 -0.00896705 0.0614118)
(1.12128 -0.00897216 0.0601323)
(1.12976 -0.00880808 0.0577932)
(1.13632 -0.00849695 0.0546938)
(1.14094 -0.00811309 0.0512505)
(1.14369 -0.00771414 0.0477526)
(1.14479 -0.00732338 0.0443302)
(1.14455 -0.006945 0.0410282)
(1.14322 -0.0065797 0.0378711)
(1.14103 -0.00622954 0.0348847)
(1.13812 -0.00589675 0.0320917)
(1.13465 -0.00558244 0.0295043)
(1.13073 -0.00528647 0.0271242)
(1.12646 -0.00500801 0.0249457)
(1.12191 -0.00474593 0.0229597)
(1.11717 -0.00449843 0.0211545)
(1.1123 -0.00426439 0.0195175)
(1.10733 -0.00404311 0.0180362)
(1.10232 -0.00383407 0.0166981)
(1.0973 -0.00363681 0.015491)
(1.09229 -0.00345092 0.014403)
(1.08731 -0.00327604 0.0134227)
(1.08239 -0.00311178 0.0125394)
(1.07754 -0.00295766 0.0117431)
(1.07277 -0.00281322 0.0110246)
(1.06808 -0.00267795 0.0103754)
(1.06349 -0.00255137 0.00978785)
(1.05899 -0.00243298 0.00925511)
(1.00031 -0.00891982 0.0239207)
(1.02726 -0.020876 0.0500926)
(1.05861 -0.0259656 0.0593969)
(1.08484 -0.0272452 0.0617124)
(1.10329 -0.0274684 0.0622879)
(1.11572 -0.0274775 0.0621266)
(1.12438 -0.0270881 0.060904)
(1.13035 -0.026153 0.0585651)
(1.13384 -0.0248234 0.0554638)
(1.13489 -0.0233448 0.0520166)
(1.13369 -0.0218779 0.0484918)
(1.13062 -0.020481 0.0450108)
(1.12609 -0.0191629 0.0416254)
(1.12042 -0.0179243 0.0383712)
(1.11389 -0.0167678 0.0352803)
(1.10672 -0.0156953 0.0323772)
(1.09908 -0.0147051 0.0296753)
(1.09112 -0.0137924 0.0271778)
(1.08298 -0.0129507 0.0248816)
(1.07475 -0.0121737 0.0227797)
(1.06652 -0.0114543 0.020863)
(1.05835 -0.0107866 0.019121)
(1.05029 -0.0101656 0.0175422)
(1.04239 -0.00958741 0.0161147)
(1.03467 -0.00904874 0.0148269)
(1.02716 -0.00854682 0.0136671)
(1.01987 -0.00807919 0.012624)
(1.0128 -0.00764353 0.0116863)
(1.00597 -0.00723757 0.0108435)
(0.999371 -0.00685922 0.0100858)
(0.993005 -0.00650659 0.00940414)
(0.986869 -0.00617785 0.00879013)
(0.980956 -0.00587132 0.00823618)
(1.00072 -0.0222637 0.0241276)
(1.0334 -0.0448104 0.0500841)
(1.06494 -0.0513708 0.0595557)
(1.08439 -0.0519075 0.0623346)
(1.09137 -0.0513057 0.0632318)
(1.09029 -0.0501295 0.0629121)
(1.08471 -0.0479884 0.061145)
(1.0761 -0.0449545 0.0581185)
(1.06486 -0.0414773 0.0543425)
(1.05136 -0.0379631 0.0502688)
(1.03619 -0.0346195 0.0461598)
(1.02 -0.0315118 0.0421423)
(1.00331 -0.0286532 0.0382858)
(0.98653 -0.026046 0.034638)
(0.969926 -0.0236874 0.0312316)
(0.953686 -0.0215663 0.028084)
(0.937942 -0.0196642 0.0252002)
(0.922783 -0.0179595 0.0225762)
(0.908266 -0.0164302 0.0202026)
(0.894421 -0.0150562 0.0180667)
(0.88126 -0.0138192 0.016154)
(0.868783 -0.0127031 0.0144483)
(0.856976 -0.0116939 0.0129329)
(0.84582 -0.01078 0.0115908)
(0.835289 -0.00995172 0.0104056)
(0.825356 -0.00920052 0.0093609)
(0.815988 -0.00851896 0.00844155)
(0.807154 -0.00790039 0.00763305)
(0.798821 -0.00733879 0.0069224)
(0.790956 -0.00682867 0.00629778)
(0.78353 -0.00636506 0.00574845)
(0.776511 -0.00594338 0.00526472)
(0.769871 -0.00555961 0.00483797)
(0.964197 -0.0157744 0.024125)
(0.952999 -0.029956 0.0480981)
(0.933054 -0.0324587 0.0555689)
(0.895181 -0.0306217 0.0566567)
(0.846754 -0.028074 0.0553182)
(0.796864 -0.0252827 0.0518192)
(0.749716 -0.0221072 0.0463854)
(0.706045 -0.0187401 0.0399058)
(0.665683 -0.0155611 0.0333492)
(0.628734 -0.0128274 0.0273396)
(0.59547 -0.0106017 0.0221577)
(0.565983 -0.00883151 0.0178728)
(0.540082 -0.00743385 0.0144333)
(0.5174 -0.00633103 0.011718)
(0.497512 -0.0054568 0.00958085)
(0.480012 -0.00475598 0.00788634)
(0.464543 -0.00418468 0.00652625)
(0.450802 -0.00371009 0.00542134)
(0.438534 -0.00330892 0.00451548)
(0.427533 -0.00296498 0.00376872)
(0.417627 -0.00266691 0.00315184)
(0.408674 -0.00240641 0.00264259)
(0.400557 -0.00217738 0.00222323)
(0.393176 -0.00197528 0.00187906)
(0.386444 -0.00179657 0.00159762)
(0.380289 -0.00163833 0.0013679)
(0.374646 -0.00149813 0.00118049)
(0.369458 -0.00137376 0.00102719)
(0.364676 -0.0012634 0.000902287)
(0.360256 -0.00116529 0.000800949)
(0.356158 -0.00107791 0.000718453)
(0.352349 -0.000999949 0.000650661)
(0.348798 -0.000930246 0.000594334)
(0.963615 0.0156001 0.0123198)
(0.945871 0.0293953 0.0292663)
(0.925717 0.0314727 0.0378949)
(0.895162 0.0293181 0.0412196)
(0.85852 0.0267498 0.04202)
(0.821654 0.024298 0.0411692)
(0.78714 0.0216467 0.0388168)
(0.755024 0.0187667 0.0352845)
(0.724713 0.0159142 0.0311185)
(0.695993 0.0133305 0.0268212)
(0.669049 0.0111115 0.0227209)
(0.644135 0.00924609 0.0189924)
(0.621375 0.00769015 0.015713)
(0.600751 0.00640402 0.0128995)
(0.582156 0.00535442 0.0105297)
(0.565441 0.00450827 0.00856001)
(0.550436 0.0038313 0.00693876)
(0.536967 0.00329064 0.00561409)
(0.524865 0.00285758 0.00453773)
(0.51397 0.00250876 0.00366679)
(0.504139 0.00222569 0.00296435)
(0.495245 0.00199393 0.00239955)
(0.487174 0.00180216 0.00194693)
(0.479829 0.00164169 0.00158573)
(0.473124 0.00150577 0.00129931)
(0.466983 0.00138961 0.00107315)
(0.461341 0.00128925 0.000896238)
(0.456142 0.00120226 0.0007546)
(0.451337 0.00112611 0.000642401)
(0.446883 0.00105836 0.000555652)
(0.44274 0.000997432 0.000489583)
(0.438874 0.000942369 0.000439602)
(0.435256 0.00089243 0.000401993)
(1.0003 0.0220605 0.0122835)
(1.0269 0.0447997 0.0304609)
(1.05787 0.0511694 0.0407178)
(1.08383 0.0512231 0.0458569)
(1.10227 0.050287 0.0486865)
(1.11499 0.0492504 0.0502908)
(1.12419 0.0476215 0.0507447)
(1.13085 0.0452261 0.050074)
(1.13509 0.0423501 0.0485285)
(1.13688 0.0393546 0.0464348)
(1.13644 0.0364466 0.044047)
(1.13411 0.0336881 0.0415191)
(1.13028 0.0310838 0.0389413)
(1.12527 0.0286367 0.0363735)
(1.11933 0.0263564 0.0338607)
(1.11269 0.0242505 0.0314361)
(1.10551 0.0223189 0.0291227)
(1.09797 0.0205542 0.0269346)
(1.09018 0.0189455 0.0248798)
(1.08225 0.0174805 0.0229613)
(1.07428 0.0161474 0.0211793)
(1.06634 0.0149345 0.0195309)
(1.05848 0.0138309 0.0180122)
(1.05075 0.0128269 0.0166172)
(1.04318 0.0119131 0.0153394)
(1.03581 0.0110814 0.0141715)
(1.02865 0.0103243 0.0131065)
(1.02171 0.00963479 0.0121364)
(1.01501 0.00900601 0.0112538)
(1.00853 0.00843166 0.0104515)
(1.00229 0.00790638 0.0097229)
(0.996283 0.00742546 0.00906131)
(0.990499 0.00698462 0.00846048)
(0.999872 0.00876718 0.0121298)
(1.02069 0.0206956 0.0303388)
(1.05133 0.0256628 0.0405345)
(1.08383 0.026701 0.0454667)
(1.11335 0.0267299 0.0481341)
(1.13906 0.0267676 0.0498267)
(1.16186 0.0266149 0.050625)
(1.18248 0.0260037 0.0504396)
(1.20102 0.0249887 0.0494206)
(1.21731 0.0237905 0.047864)
(1.23128 0.0225797 0.046027)
(1.24304 0.0214205 0.0440619)
(1.25282 0.0203164 0.0420442)
(1.26086 0.0192611 0.0400169)
(1.26735 0.0182565 0.0380137)
(1.27249 0.0173081 0.0360626)
(1.27643 0.0164191 0.0341836)
(1.27931 0.0155884 0.0323883)
(1.28126 0.0148122 0.030682)
(1.2824 0.0140856 0.0290662)
(1.28286 0.0134042 0.0275402)
(1.28271 0.012764 0.0261025)
(1.28206 0.0121616 0.0247506)
(1.28098 0.0115942 0.023481)
(1.27953 0.0110592 0.0222897)
(1.27777 0.0105544 0.0211724)
(1.27576 0.0100776 0.0201251)
(1.27354 0.00962727 0.0191433)
(1.27114 0.00920144 0.018223)
(1.26861 0.00879839 0.0173603)
(1.26597 0.0084167 0.0165511)
(1.26324 0.0080551 0.015792)
(1.26044 0.00771242 0.0150795)
(0.999938 0.00243836 0.0120667)
(1.01757 0.00615341 0.0302448)
(1.04521 0.00800694 0.0404267)
(1.07656 0.00856882 0.045248)
(1.10664 0.00869938 0.047767)
(1.1338 0.00880805 0.0493481)
(1.15845 0.00887933 0.0500964)
(1.18127 0.00881216 0.0498874)
(1.20248 0.00860014 0.0488386)
(1.22191 0.00830925 0.047247)
(1.23942 0.00800054 0.0453893)
(1.25499 0.00769935 0.0434324)
(1.26879 0.00740703 0.0414543)
(1.281 0.00712007 0.0394937)
(1.29179 0.00683836 0.0375802)
(1.3013 0.00656433 0.0357394)
(1.30965 0.00630018 0.0339896)
(1.31695 0.00604676 0.0323394)
(1.32331 0.00580386 0.0307904)
(1.32881 0.00557092 0.0293403)
(1.33355 0.00534728 0.0279854)
(1.33761 0.00513252 0.0267211)
(1.34105 0.00492643 0.0255421)
(1.34395 0.00472876 0.0244423)
(1.34636 0.00453913 0.0234154)
(1.34833 0.00435723 0.0224552)
(1.34991 0.00418283 0.0215557)
(1.35113 0.00401576 0.0207114)
(1.35204 0.00385585 0.0199174)
(1.35267 0.00370287 0.0191694)
(1.35304 0.00355665 0.0184635)
(1.35319 0.00341698 0.0177961)
(1.35313 0.00328367 0.0171642)
(0.999938 -0.00243836 0.0120667)
(1.01757 -0.00615341 0.0302448)
(1.04521 -0.00800694 0.0404267)
(1.07656 -0.00856882 0.045248)
(1.10664 -0.00869938 0.047767)
(1.1338 -0.00880805 0.0493481)
(1.15845 -0.00887933 0.0500964)
(1.18127 -0.00881216 0.0498874)
(1.20248 -0.00860014 0.0488386)
(1.22191 -0.00830925 0.047247)
(1.23942 -0.00800054 0.0453893)
(1.25499 -0.00769935 0.0434324)
(1.26879 -0.00740703 0.0414543)
(1.281 -0.00712007 0.0394937)
(1.29179 -0.00683836 0.0375802)
(1.3013 -0.00656433 0.0357394)
(1.30965 -0.00630018 0.0339896)
(1.31695 -0.00604676 0.0323394)
(1.32331 -0.00580386 0.0307904)
(1.32881 -0.00557092 0.0293403)
(1.33355 -0.00534728 0.0279854)
(1.33761 -0.00513252 0.0267211)
(1.34105 -0.00492643 0.0255421)
(1.34395 -0.00472876 0.0244423)
(1.34636 -0.00453913 0.0234154)
(1.34833 -0.00435723 0.0224552)
(1.34991 -0.00418283 0.0215557)
(1.35113 -0.00401576 0.0207114)
(1.35204 -0.00385585 0.0199174)
(1.35267 -0.00370287 0.0191694)
(1.35304 -0.00355665 0.0184635)
(1.35319 -0.00341698 0.0177961)
(1.35313 -0.00328367 0.0171642)
(0.999872 -0.00876718 0.0121298)
(1.02069 -0.0206956 0.0303388)
(1.05133 -0.0256628 0.0405345)
(1.08383 -0.026701 0.0454667)
(1.11335 -0.0267299 0.0481341)
(1.13906 -0.0267676 0.0498267)
(1.16186 -0.0266149 0.050625)
(1.18248 -0.0260037 0.0504396)
(1.20102 -0.0249887 0.0494206)
(1.21731 -0.0237905 0.047864)
(1.23128 -0.0225797 0.046027)
(1.24304 -0.0214205 0.0440619)
(1.25282 -0.0203164 0.0420442)
(1.26086 -0.0192611 0.0400169)
(1.26735 -0.0182565 0.0380137)
(1.27249 -0.0173081 0.0360626)
(1.27643 -0.0164191 0.0341836)
(1.27931 -0.0155884 0.0323883)
(1.28126 -0.0148122 0.030682)
(1.2824 -0.0140856 0.0290662)
(1.28286 -0.0134042 0.0275402)
(1.28271 -0.012764 0.0261025)
(1.28206 -0.0121616 0.0247506)
(1.28098 -0.0115942 0.023481)
(1.27953 -0.0110592 0.0222897)
(1.27777 -0.0105544 0.0211724)
(1.27576 -0.0100776 0.0201251)
(1.27354 -0.00962727 0.0191433)
(1.27114 -0.00920144 0.018223)
(1.26861 -0.00879839 0.0173603)
(1.26597 -0.0084167 0.0165511)
(1.26324 -0.0080551 0.015792)
(1.26044 -0.00771242 0.0150795)
(1.0003 -0.0220605 0.0122835)
(1.0269 -0.0447997 0.0304609)
(1.05787 -0.0511694 0.0407178)
(1.08383 -0.0512231 0.0458569)
(1.10227 -0.050287 0.0486865)
(1.11499 -0.0492504 0.0502908)
(1.12419 -0.0476215 0.0507447)
(1.13085 -0.0452261 0.050074)
(1.13509 -0.0423501 0.0485285)
(1.13688 -0.0393546 0.0464348)
(1.13644 -0.0364466 0.044047)
(1.13411 -0.0336881 0.0415191)
(1.13028 -0.0310838 0.0389413)
(1.12527 -0.0286367 0.0363735)
(1.11933 -0.0263564 0.0338607)
(1.11269 -0.0242505 0.0314361)
(1.10551 -0.0223189 0.0291227)
(1.09797 -0.0205542 0.0269346)
(1.09018 -0.0189455 0.0248798)
(1.08225 -0.0174805 0.0229613)
(1.07428 -0.0161474 0.0211793)
(1.06634 -0.0149345 0.0195309)
(1.05848 -0.0138309 0.0180122)
(1.05075 -0.0128269 0.0166172)
(1.04318 -0.0119131 0.0153394)
(1.03581 -0.0110814 0.0141715)
(1.02865 -0.0103243 0.0131065)
(1.02171 -0.00963479 0.0121364)
(1.01501 -0.00900601 0.0112538)
(1.00853 -0.00843166 0.0104515)
(1.00229 -0.00790638 0.0097229)
(0.996283 -0.00742546 0.00906131)
(0.990499 -0.00698462 0.00846048)
(0.963615 -0.0156001 0.0123198)
(0.945871 -0.0293953 0.0292663)
(0.925717 -0.0314727 0.0378949)
(0.895162 -0.0293181 0.0412196)
(0.85852 -0.0267498 0.04202)
(0.821654 -0.024298 0.0411692)
(0.78714 -0.0216467 0.0388168)
(0.755024 -0.0187667 0.0352845)
(0.724713 -0.0159142 0.0311185)
(0.695993 -0.0133305 0.0268212)
(0.669049 -0.0111115 0.0227209)
(0.644135 -0.00924609 0.0189924)
(0.621375 -0.00769015 0.015713)
(0.600751 -0.00640402 0.0128995)
(0.582156 -0.00535442 0.0105297)
(0.565441 -0.00450827 0.00856001)
(0.550436 -0.0038313 0.00693876)
(0.536967 -0.00329064 0.00561409)
(0.524865 -0.00285758 0.00453773)
(0.51397 -0.00250876 0.00366679)
(0.504139 -0.00222569 0.00296435)
(0.495245 -0.00199393 0.00239955)
(0.487174 -0.00180216 0.00194693)
(0.479829 -0.00164169 0.00158573)
(0.473124 -0.00150577 0.00129931)
(0.466983 -0.00138961 0.00107315)
(0.461341 -0.00128925 0.000896238)
(0.456142 -0.00120226 0.0007546)
(0.451337 -0.00112611 0.000642401)
(0.446883 -0.00105836 0.000555652)
(0.44274 -0.000997432 0.000489583)
(0.438874 -0.000942369 0.000439602)
(0.435256 -0.00089243 0.000401993)
(0.963607 0.0156333 0.00751883)
(0.941532 0.0296068 0.0197068)
(0.916911 0.0316863 0.0277261)
(0.883974 0.0293959 0.0319096)
(0.847264 0.0266682 0.0336024)
(0.811847 0.0241446 0.0337466)
(0.779726 0.0215098 0.0326965)
(0.750711 0.0186768 0.0306464)
(0.724028 0.0158549 0.0278848)
(0.699201 0.0132737 0.0247554)
(0.676132 0.0110361 0.0215482)
(0.654865 0.00913709 0.018458)
(0.635413 0.00753385 0.0155986)
(0.617724 0.00618812 0.0130283)
(0.601701 0.00507196 0.0107678)
(0.58723 0.00416005 0.00881273)
(0.574186 0.00342484 0.00714379)
(0.562442 0.00283766 0.00573414)
(0.551869 0.00237154 0.00455395)
(0.542344 0.00200302 0.00357353)
(0.533752 0.00171257 0.0027649)
(0.525987 0.00148396 0.00210314)
(0.518954 0.00130383 0.00156623)
(0.512567 0.00116096 0.00113456)
(0.506747 0.00104615 0.00079066)
(0.501426 0.000953414 0.000519256)
(0.496542 0.00087687 0.000306468)
(0.49204 0.000816921 0.000147919)
(0.487884 0.000769641 3.2604e-05)
(0.484033 0.000730562 -5.04362e-05)
(0.480453 0.000697105 -0.000108549)
(0.477113 0.00066788 -0.00014682)
(0.473988 0.000641908 -0.000169398)
(1.00036 0.0219968 0.00753617)
(1.02291 0.044837 0.0204503)
(1.04954 0.0512151 0.0296022)
(1.07294 0.0510597 0.0352924)
(1.09088 0.049807 0.0387104)
(1.10455 0.0485321 0.0407975)
(1.11562 0.0467939 0.0419138)
(1.12493 0.044356 0.0421572)
(1.1326 0.0414414 0.041649)
(1.13853 0.0383985 0.0405816)
(1.14276 0.0354502 0.0391483)
(1.14546 0.03267 0.0374935)
(1.14687 0.0300606 0.0357102)
(1.14718 0.027617 0.0338593)
(1.14659 0.0253439 0.0319848)
(1.14522 0.0232487 0.0301203)
(1.14322 0.0213322 0.0282921)
(1.14069 0.0195883 0.0265193)
(1.13772 0.0180058 0.0248154)
(1.13442 0.0165724 0.0231896)
(1.13085 0.0152752 0.021648)
(1.12708 0.0141022 0.0201935)
(1.12317 0.0130416 0.0188274)
(1.11917 0.0120829 0.0175496)
(1.11511 0.0112151 0.0163587)
(1.11103 0.0104299 0.0152527)
(1.10697 0.00971764 0.0142285)
(1.10293 0.0090735 0.0132833)
(1.09893 0.00849015 0.0124135)
(1.095 0.00796012 0.011614)
(1.09114 0.00747729 0.0108801)
(1.08737 0.0070366 0.0102071)
(1.08368 0.00663356 0.00959025)
(0.999939 0.0087032 0.00748497)
(1.01669 0.0205913 0.020467)
(1.04293 0.025525 0.029712)
(1.07288 0.0264221 0.0354068)
(1.10196 0.0262673 0.0388228)
(1.12862 0.0261578 0.040999)
(1.15317 0.0259229 0.0423469)
(1.17616 0.0252568 0.0429419)
(1.19773 0.0241742 0.0428587)
(1.21769 0.0228897 0.0422606)
(1.23588 0.0215916 0.0413317)
(1.25226 0.02036 0.040211)
(1.26696 0.0192042 0.0389801)
(1.28011 0.0181159 0.0376841)
(1.29186 0.0170944 0.036353)
(1.30235 0.0161445 0.0350111)
(1.31168 0.015269 0.033678)
(1.31995 0.0144658 0.032368)
(1.32726 0.0137288 0.0310905)
(1.33371 0.0130512 0.0298517)
(1.33938 0.0124262 0.0286552)
(1.34435 0.0118481 0.0275035)
(1.3487 0.0113118 0.0263979)
(1.35248 0.010813 0.025339)
(1.35577 0.0103478 0.0243266)
(1.3586 0.00991253 0.02336)
(1.36104 0.00950366 0.0224383)
(1.36311 0.00911867 0.0215606)
(1.36487 0.00875515 0.0207254)
(1.36634 0.00841086 0.0199311)
(1.36755 0.00808406 0.0191761)
(1.36853 0.00777332 0.0184584)
(1.3693 0.00747748 0.0177762)
(1.00001 0.00241632 0.00745533)
(1.01357 0.00610944 0.0204309)
(1.03675 0.0079552 0.0297083)
(1.06551 0.00847966 0.0353866)
(1.09517 0.00856194 0.0387545)
(1.12332 0.00862874 0.0408809)
(1.14972 0.00867405 0.0421991)
(1.17487 0.00858682 0.0427795)
(1.199 0.00834921 0.0426844)
(1.22195 0.00802581 0.042075)
(1.24348 0.00768415 0.0411452)
(1.26346 0.00735575 0.0400442)
(1.28191 0.00704423 0.0388583)
(1.29896 0.00674541 0.0376321)
(1.31472 0.006458 0.0363928)
(1.3293 0.00618382 0.035162)
(1.34277 0.00592481 0.0339574)
(1.35523 0.00568137 0.0327907)
(1.36674 0.00545256 0.0316688)
(1.37738 0.00523704 0.0305946)
(1.38722 0.00503352 0.0295692)
(1.39633 0.00484104 0.0285924)
(1.40478 0.00465878 0.0276631)
(1.41261 0.00448603 0.0267798)
(1.41987 0.00432206 0.0259403)