/*--------------------------------*- C++ -*----------------------------------*\
| =========                 |                                                 |
| \\      /  F ield         | OpenFOAM: The Open Source CFD Toolbox           |
|  \\    /   O peration     | Version:  2412                                  |
|   \\  /    A nd           | Website:  www.openfoam.com                      |
|    \\/     M anipulation  |                                                 |
\*---------------------------------------------------------------------------*/
FoamFile
{
    version     2.0;
    format      ascii;
    arch        "LSB;label=32;scalar=64";
    class       volVectorField;
    location    "4.0040539";
    object      U_0;
}
// * * * * * * * * * * * * * * * * * * * * * * * * * * * * * * * * * * * * * //

dimensions      [0 1 -1 0 0 0 0];

internalField   nonuniform List<vector> 
16000
(
(0.92912 0.0156675 0.016197)
(0.87769 0.0275332 0.0289856)
(0.809314 0.0277575 0.0299853)
(0.720529 0.0242391 0.0269582)
(0.629511 0.0202763 0.0231379)
(0.549767 0.0161682 0.0189108)
(0.48458 0.0120603 0.0145367)
(0.432285 0.00846622 0.0105923)
(0.390463 0.00577 0.00748525)
(0.357154 0.00399658 0.00526219)
(0.330657 0.00295437 0.00376037)
(0.309391 0.00241283 0.00277653)
(0.291999 0.00217591 0.00213414)
(0.277441 0.00209567 0.00169763)
(0.264984 0.00207274 0.00137509)
(0.254139 0.00205132 0.00111418)
(0.244585 0.00200784 0.000890986)
(0.236102 0.00193773 0.000697302)
(0.228537 0.00184528 0.000531256)
(0.221771 0.00173751 0.000392323)
(0.215706 0.00162129 0.000279365)
(0.210261 0.00150228 0.000190208)
(0.205362 0.00138469 0.000121878)
(0.200946 0.00127143 7.10428e-05)
(0.196955 0.00116441 3.44327e-05)
(0.193339 0.00106481 8.97947e-06)
(0.190052 0.000973218 -7.90368e-06)
(0.187055 0.00088982 -1.84915e-05)
(0.184314 0.000814429 -2.44747e-05)
(0.181798 0.000746608 -2.7139e-05)
(0.17948 0.000685835 -2.75518e-05)
(0.177337 0.000631559 -2.65414e-05)
(0.175349 0.000583115 -2.46575e-05)
(0.964172 0.022274 0.0163035)
(0.952968 0.042972 0.0313882)
(0.93315 0.0477279 0.0346383)
(0.895608 0.0468795 0.0333049)
(0.84755 0.0444916 0.0309602)
(0.797894 0.0406996 0.028132)
(0.750809 0.0355227 0.0247674)
(0.707037 0.0296975 0.0211125)
(0.666401 0.0241033 0.0175711)
(0.628993 0.0192839 0.0144226)
(0.595111 0.0154232 0.0117601)
(0.56491 0.0124939 0.00956191)
(0.538279 0.010369 0.00776833)
(0.514919 0.00887858 0.00631554)
(0.494455 0.00784765 0.00514413)
(0.476506 0.00712391 0.00420089)
(0.460724 0.00659131 0.00344054)
(0.4468 0.00617021 0.00282644)
(0.434468 0.0058105 0.00232989)
(0.423499 0.00548353 0.00192842)
(0.413702 0.00517414 0.00160426)
(0.404916 0.00487596 0.00134284)
(0.397001 0.00458718 0.00113218)
(0.389842 0.00430808 0.000962578)
(0.38334 0.00403978 0.000826129)
(0.377411 0.00378371 0.000716294)
(0.371983 0.00354116 0.000627704)
(0.366995 0.00331308 0.000555987)
(0.362395 0.00309997 0.000497669)
(0.358137 0.00290187 0.000449951)
(0.354182 0.00271851 0.000410545)
(0.350498 0.00254947 0.000377583)
(0.347054 0.00239433 0.000349724)
(0.963606 0.00898204 0.016126)
(0.946207 0.0199945 0.0308242)
(0.9266 0.023902 0.0336432)
(0.896706 0.0240332 0.0319932)
(0.860535 0.0231289 0.0296239)
(0.823716 0.021766 0.027128)
(0.788878 0.0197769 0.0242795)
(0.756232 0.0172555 0.0211079)
(0.725274 0.0145889 0.0178997)
(0.695786 0.0121252 0.014923)
(0.66794 0.0100263 0.0123044)
(0.642022 0.00831699 0.0100591)
(0.618227 0.00696808 0.00815925)
(0.596605 0.00593485 0.00657195)
(0.5771 0.00516599 0.00526591)
(0.559595 0.00460729 0.0042077)
(0.54394 0.00420709 0.00336132)
(0.529967 0.00392051 0.00269118)
(0.517504 0.00371132 0.00216514)
(0.50638 0.00355151 0.00175533)
(0.496438 0.0034218 0.00143857)
(0.487527 0.00330905 0.00119427)
(0.47951 0.00320457 0.00100606)
(0.472268 0.0031031 0.000861744)
(0.465697 0.00300192 0.000752019)
(0.459709 0.00290001 0.000669453)
(0.454227 0.00279738 0.000607968)
(0.449184 0.0026946 0.000562606)
(0.444526 0.00259249 0.000529367)
(0.440205 0.00249187 0.000505068)
(0.436181 0.00239354 0.00048719)
(0.432418 0.00229817 0.000473769)
(0.428889 0.0022065 0.000463201)
(0.963608 0.00249508 0.0161492)
(0.942835 0.00596703 0.0309855)
(0.920286 0.00746074 0.0337896)
(0.889573 0.00767053 0.0320236)
(0.854425 0.00747993 0.0295349)
(0.819535 0.00717443 0.0270082)
(0.787098 0.00669725 0.0242023)
(0.757268 0.00602306 0.0210884)
(0.729464 0.00524674 0.0179167)
(0.703257 0.00448498 0.0149541)
(0.678576 0.00380453 0.0123374)
(0.65555 0.00322508 0.0100857)
(0.634303 0.0027464 0.00816859)
(0.614875 0.00236219 0.00655213)
(0.597229 0.0020622 0.00520898)
(0.581282 0.00183293 0.00411212)
(0.566927 0.00165983 0.00323092)
(0.554043 0.00152934 0.00253285)
(0.542501 0.00143007 0.00198686)
(0.532171 0.00135224 0.00156538)
(0.522918 0.00128957 0.00124217)
(0.514615 0.00123721 0.00099561)
(0.507147 0.00119149 0.00080909)
(0.500406 0.00114994 0.000669951)
(0.494299 0.00111104 0.000568281)
(0.488741 0.00107391 0.000496071)
(0.483659 0.00103811 0.000446729)
(0.47899 0.0010034 0.000414805)
(0.47468 0.000969718 0.000395831)
(0.470682 0.000937088 0.000386206)
(0.466957 0.00090556 0.00038308)
(0.463471 0.000875219 0.000384218)
(0.460197 0.00084607 0.000387871)
(0.963608 -0.00249508 0.0161492)
(0.942835 -0.00596703 0.0309855)
(0.920286 -0.00746074 0.0337896)
(0.889573 -0.00767053 0.0320236)
(0.854425 -0.00747993 0.0295349)
(0.819535 -0.00717443 0.0270082)
(0.787098 -0.00669725 0.0242023)
(0.757268 -0.00602306 0.0210884)
(0.729464 -0.00524674 0.0179167)
(0.703257 -0.00448498 0.0149541)
(0.678576 -0.00380453 0.0123374)
(0.65555 -0.00322508 0.0100857)
(0.634303 -0.0027464 0.00816859)
(0.614875 -0.00236219 0.00655213)
(0.597229 -0.0020622 0.00520898)
(0.581282 -0.00183293 0.00411212)
(0.566927 -0.00165983 0.00323092)
(0.554043 -0.00152934 0.00253285)
(0.542501 -0.00143007 0.00198686)
(0.532171 -0.00135224 0.00156538)
(0.522918 -0.00128957 0.00124217)
(0.514615 -0.00123721 0.00099561)
(0.507147 -0.00119149 0.00080909)
(0.500406 -0.00114994 0.000669951)
(0.494299 -0.00111104 0.000568281)
(0.488741 -0.00107391 0.000496071)
(0.483659 -0.00103811 0.000446729)
(0.47899 -0.0010034 0.000414805)
(0.47468 -0.000969718 0.000395831)
(0.470682 -0.000937088 0.000386206)
(0.466957 -0.00090556 0.00038308)
(0.463471 -0.000875218 0.000384218)
(0.460197 -0.00084607 0.000387871)
(0.963606 -0.00898204 0.016126)
(0.946207 -0.0199945 0.0308242)
(0.9266 -0.023902 0.0336432)
(0.896706 -0.0240332 0.0319932)
(0.860535 -0.0231289 0.0296239)
(0.823716 -0.021766 0.027128)
(0.788878 -0.0197769 0.0242795)
(0.756232 -0.0172555 0.0211079)
(0.725274 -0.0145889 0.0178997)
(0.695786 -0.0121252 0.014923)
(0.66794 -0.0100263 0.0123044)
(0.642022 -0.00831699 0.0100591)
(0.618227 -0.00696808 0.00815925)
(0.596605 -0.00593485 0.00657195)
(0.5771 -0.00516599 0.00526591)
(0.559595 -0.00460729 0.0042077)
(0.54394 -0.00420709 0.00336132)
(0.529967 -0.00392051 0.00269118)
(0.517504 -0.00371132 0.00216514)
(0.50638 -0.00355151 0.00175533)
(0.496438 -0.0034218 0.00143857)
(0.487527 -0.00330905 0.00119427)
(0.47951 -0.00320457 0.00100606)
(0.472268 -0.0031031 0.000861744)
(0.465697 -0.00300192 0.000752019)
(0.459709 -0.00290001 0.000669453)
(0.454227 -0.00279738 0.000607968)
(0.449184 -0.0026946 0.000562606)
(0.444526 -0.00259249 0.000529367)
(0.440205 -0.00249187 0.000505068)
(0.436181 -0.00239354 0.00048719)
(0.432418 -0.00229817 0.000473769)
(0.428889 -0.0022065 0.000463201)
(0.964172 -0.022274 0.0163035)
(0.952968 -0.042972 0.0313882)
(0.93315 -0.0477279 0.0346383)
(0.895608 -0.0468795 0.0333049)
(0.84755 -0.0444916 0.0309602)
(0.797894 -0.0406996 0.028132)
(0.750809 -0.0355227 0.0247674)
(0.707037 -0.0296975 0.0211125)
(0.666401 -0.0241033 0.0175711)
(0.628993 -0.0192839 0.0144226)
(0.595111 -0.0154232 0.0117601)
(0.56491 -0.0124939 0.00956191)
(0.538279 -0.010369 0.00776833)
(0.514919 -0.00887858 0.00631554)
(0.494455 -0.00784765 0.00514413)
(0.476506 -0.00712391 0.00420089)
(0.460724 -0.00659131 0.00344054)
(0.4468 -0.00617021 0.00282644)
(0.434468 -0.0058105 0.00232989)
(0.423499 -0.00548353 0.00192842)
(0.413702 -0.00517414 0.00160426)
(0.404916 -0.00487596 0.00134284)
(0.397001 -0.00458718 0.00113218)
(0.389842 -0.00430808 0.000962578)
(0.38334 -0.00403978 0.000826129)
(0.377411 -0.00378371 0.000716294)
(0.371983 -0.00354116 0.000627704)
(0.366995 -0.00331308 0.000555987)
(0.362395 -0.00309997 0.000497669)
(0.358137 -0.00290187 0.000449951)
(0.354182 -0.00271851 0.000410545)
(0.350498 -0.00254947 0.000377583)
(0.347054 -0.00239433 0.000349724)
(0.92912 -0.0156675 0.016197)
(0.87769 -0.0275332 0.0289856)
(0.809314 -0.0277575 0.0299853)
(0.720529 -0.0242391 0.0269582)
(0.629511 -0.0202763 0.0231379)
(0.549767 -0.0161682 0.0189108)
(0.48458 -0.0120603 0.0145367)
(0.432285 -0.00846622 0.0105923)
(0.390463 -0.00577 0.00748525)
(0.357154 -0.00399658 0.00526219)
(0.330657 -0.00295437 0.00376037)
(0.309391 -0.00241283 0.00277653)
(0.291999 -0.00217591 0.00213414)
(0.277441 -0.00209567 0.00169763)
(0.264984 -0.00207274 0.00137509)
(0.254139 -0.00205132 0.00111418)
(0.244585 -0.00200784 0.000890986)
(0.236102 -0.00193773 0.000697302)
(0.228537 -0.00184528 0.000531256)
(0.221771 -0.00173751 0.000392323)
(0.215706 -0.00162129 0.000279365)
(0.210261 -0.00150228 0.000190208)
(0.205362 -0.00138469 0.000121878)
(0.200946 -0.00127143 7.10428e-05)
(0.196955 -0.00116441 3.44327e-05)
(0.193339 -0.00106481 8.97948e-06)
(0.190052 -0.000973218 -7.90367e-06)
(0.187055 -0.00088982 -1.84915e-05)
(0.184314 -0.000814429 -2.44747e-05)
(0.181798 -0.000746608 -2.7139e-05)
(0.17948 -0.000685835 -2.75518e-05)
(0.177337 -0.000631559 -2.65414e-05)
(0.175349 -0.000583115 -2.46575e-05)
(0.964197 0.0157732 0.0241241)
(0.952998 0.0299542 0.0480973)
(0.933053 0.0324573 0.0555684)
(0.89518 0.0306205 0.0566562)
(0.846754 0.0280731 0.0553176)
(0.796864 0.0252819 0.0518187)
(0.749715 0.0221065 0.046385)
(0.706044 0.0187396 0.0399055)
(0.665682 0.0155607 0.0333489)
(0.628733 0.0128271 0.0273395)
(0.59547 0.0106014 0.0221575)
(0.565982 0.00883123 0.0178727)
(0.540082 0.00743361 0.0144332)
(0.5174 0.00633083 0.0117179)
(0.497512 0.00545663 0.00958077)
(0.480012 0.00475584 0.00788626)
(0.464543 0.00418456 0.00652617)
(0.450801 0.00371 0.00542126)
(0.438534 0.00330884 0.00451539)
(0.427533 0.00296492 0.00376863)
(0.417627 0.00266686 0.00315174)
(0.408674 0.00240637 0.00264248)
(0.400557 0.00217736 0.00222311)
(0.393176 0.00197527 0.00187892)
(0.386444 0.00179657 0.00159747)
(0.380289 0.00163834 0.00136772)
(0.374646 0.00149814 0.00118029)
(0.369458 0.00137379 0.00102696)
(0.364676 0.00126343 0.000902023)
(0.360256 0.00116534 0.000800645)
(0.356159 0.00107797 0.000718108)
(0.35235 0.00100002 0.000650264)
(0.348799 0.000930332 0.000593878)
(1.00072 0.0222629 0.0241267)
(1.0334 0.0448095 0.0500832)
(1.06494 0.0513703 0.0595551)
(1.08439 0.0519072 0.0623342)
(1.09137 0.0513055 0.0632315)
(1.09029 0.0501294 0.0629119)
(1.08471 0.0479883 0.0611448)
(1.0761 0.0449545 0.0581183)
(1.06486 0.0414773 0.0543424)
(1.05136 0.0379632 0.0502687)
(1.03619 0.0346195 0.0461597)
(1.02 0.0315119 0.0421423)
(1.00331 0.0286533 0.0382858)
(0.986531 0.0260461 0.034638)
(0.969926 0.0236875 0.0312316)
(0.953687 0.0215664 0.028084)
(0.937943 0.0196643 0.0252002)
(0.922783 0.0179596 0.0225762)
(0.908266 0.0164303 0.0202026)
(0.894421 0.0150562 0.0180667)
(0.88126 0.0138193 0.016154)
(0.868782 0.0127031 0.0144482)
(0.856975 0.0116939 0.0129328)
(0.845819 0.0107801 0.0115908)
(0.835289 0.00995177 0.0104055)
(0.825356 0.00920058 0.0093608)
(0.815988 0.00851903 0.00844142)
(0.807154 0.00790045 0.00763289)
(0.798821 0.00733887 0.00692221)
(0.790957 0.00682877 0.00629754)
(0.78353 0.00636518 0.00574817)
(0.776511 0.00594352 0.00526438)
(0.769872 0.00555978 0.00483756)
(1.00031 0.00892022 0.0239199)
(1.02726 0.0208769 0.0500917)
(1.05861 0.0259668 0.0593963)
(1.08484 0.0272463 0.0617121)
(1.10329 0.0274693 0.0622876)
(1.11572 0.0274783 0.0621264)
(1.12438 0.0270889 0.0609038)
(1.13035 0.0261536 0.0585649)
(1.13384 0.024824 0.0554637)
(1.13489 0.0233453 0.0520166)
(1.13369 0.0218784 0.0484918)
(1.13063 0.0204814 0.0450108)
(1.12609 0.0191633 0.0416255)
(1.12042 0.0179246 0.0383712)
(1.11389 0.0167681 0.0352803)
(1.10672 0.0156956 0.0323773)
(1.09908 0.0147054 0.0296753)
(1.09112 0.0137926 0.0271778)
(1.08298 0.012951 0.0248816)
(1.07475 0.0121739 0.0227797)
(1.06652 0.0114545 0.020863)
(1.05835 0.0107868 0.019121)
(1.05029 0.0101658 0.0175421)
(1.04239 0.00958754 0.0161146)
(1.03467 0.00904887 0.0148268)
(1.02716 0.00854694 0.013667)
(1.01987 0.00807931 0.0126238)
(1.0128 0.00764365 0.0116861)
(1.00597 0.00723767 0.0108433)
(0.999371 0.00685933 0.0100856)
(0.993006 0.00650671 0.00940392)
(0.98687 0.00617797 0.00878988)
(0.980958 0.00587146 0.00823589)
(1.00037 0.00247948 0.0238498)
(1.02415 0.0062087 0.0500836)
(1.05255 0.00807664 0.0593624)
(1.07765 0.00868963 0.0614662)
(1.09667 0.00886496 0.0617568)
(1.11061 0.00896687 0.0614115)
(1.12128 0.00897194 0.060132)
(1.12976 0.00880785 0.057793)
(1.13632 0.00849671 0.0546936)
(1.14094 0.00811286 0.0512504)
(1.14369 0.00771392 0.0477525)
(1.14479 0.00732318 0.0443302)
(1.14455 0.00694481 0.0410281)
(1.14322 0.00657953 0.037871)
(1.14103 0.00622938 0.0348847)
(1.13812 0.00589661 0.0320916)
(1.13465 0.00558231 0.0295042)
(1.13073 0.00528636 0.0271241)
(1.12646 0.00500791 0.0249456)
(1.12191 0.00474584 0.0229596)
(1.11717 0.00449835 0.0211544)
(1.1123 0.00426432 0.0195174)
(1.10733 0.00404305 0.0180361)
(1.10232 0.00383401 0.016698)
(1.0973 0.00363676 0.0154909)
(1.09229 0.00345088 0.0144029)
(1.08731 0.00327601 0.0134226)
(1.08239 0.00311176 0.0125393)
(1.07754 0.00295765 0.0117429)
(1.07277 0.00281321 0.0110244)
(1.06808 0.00267795 0.0103751)
(1.06349 0.00255137 0.0097876)
(1.05899 0.00243299 0.00925484)
(1.00037 -0.00247948 0.0238498)
(1.02415 -0.0062087 0.0500836)
(1.05255 -0.00807664 0.0593624)
(1.07765 -0.00868963 0.0614662)
(1.09667 -0.00886496 0.0617568)
(1.11061 -0.00896687 0.0614115)
(1.12128 -0.00897194 0.060132)
(1.12976 -0.00880785 0.057793)
(1.13632 -0.00849671 0.0546936)
(1.14094 -0.00811286 0.0512504)
(1.14369 -0.00771392 0.0477525)
(1.14479 -0.00732318 0.0443302)
(1.14455 -0.00694481 0.0410281)
(1.14322 -0.00657953 0.037871)
(1.14103 -0.00622938 0.0348847)
(1.13812 -0.00589661 0.0320916)
(1.13465 -0.00558231 0.0295042)
(1.13073 -0.00528636 0.0271241)
(1.12646 -0.00500791 0.0249456)
(1.12191 -0.00474584 0.0229596)
(1.11717 -0.00449835 0.0211544)
(1.1123 -0.00426432 0.0195174)
(1.10733 -0.00404305 0.0180361)
(1.10232 -0.00383401 0.016698)
(1.0973 -0.00363676 0.0154909)
(1.09229 -0.00345088 0.0144029)
(1.08731 -0.00327601 0.0134226)
(1.08239 -0.00311176 0.0125393)
(1.07754 -0.00295765 0.0117429)
(1.07277 -0.00281321 0.0110244)
(1.06808 -0.00267795 0.0103751)
(1.06349 -0.00255137 0.0097876)
(1.05899 -0.00243299 0.00925484)
(1.00031 -0.00892022 0.0239199)
(1.02726 -0.0208769 0.0500917)
(1.05861 -0.0259668 0.0593963)
(1.08484 -0.0272463 0.0617121)
(1.10329 -0.0274693 0.0622876)
(1.11572 -0.0274783 0.0621264)
(1.12438 -0.0270889 0.0609038)
(1.13035 -0.0261536 0.0585649)
(1.13384 -0.024824 0.0554637)
(1.13489 -0.0233453 0.0520166)
(1.13369 -0.0218784 0.0484918)
(1.13063 -0.0204814 0.0450108)
(1.12609 -0.0191633 0.0416255)
(1.12042 -0.0179246 0.0383712)
(1.11389 -0.0167681 0.0352803)
(1.10672 -0.0156956 0.0323773)
(1.09908 -0.0147054 0.0296753)
(1.09112 -0.0137926 0.0271778)
(1.08298 -0.012951 0.0248816)
(1.07475 -0.0121739 0.0227797)
(1.06652 -0.0114545 0.020863)
(1.05835 -0.0107868 0.019121)
(1.05029 -0.0101658 0.0175421)
(1.04239 -0.00958754 0.0161146)
(1.03467 -0.00904887 0.0148268)
(1.02716 -0.00854694 0.013667)
(1.01987 -0.00807931 0.0126238)
(1.0128 -0.00764365 0.0116861)
(1.00597 -0.00723767 0.0108433)
(0.999371 -0.00685933 0.0100856)
(0.993006 -0.00650671 0.00940392)
(0.98687 -0.00617797 0.00878988)
(0.980958 -0.00587146 0.00823589)
(1.00072 -0.0222629 0.0241267)
(1.0334 -0.0448095 0.0500832)
(1.06494 -0.0513703 0.0595551)
(1.08439 -0.0519072 0.0623342)
(1.09137 -0.0513055 0.0632315)
(1.09029 -0.0501294 0.0629119)
(1.08471 -0.0479883 0.0611448)
(1.0761 -0.0449545 0.0581183)
(1.06486 -0.0414773 0.0543424)
(1.05136 -0.0379632 0.0502687)
(1.03619 -0.0346195 0.0461597)
(1.02 -0.0315119 0.0421423)
(1.00331 -0.0286533 0.0382858)
(0.986531 -0.0260461 0.034638)
(0.969926 -0.0236875 0.0312316)
(0.953687 -0.0215664 0.028084)
(0.937943 -0.0196643 0.0252002)
(0.922783 -0.0179596 0.0225762)
(0.908266 -0.0164303 0.0202026)
(0.894421 -0.0150562 0.0180667)
(0.88126 -0.0138193 0.016154)
(0.868782 -0.0127031 0.0144482)
(0.856975 -0.0116939 0.0129328)
(0.845819 -0.0107801 0.0115908)
(0.835289 -0.00995177 0.0104055)
(0.825356 -0.00920058 0.0093608)
(0.815988 -0.00851903 0.00844142)
(0.807154 -0.00790045 0.00763289)
(0.798821 -0.00733887 0.00692221)
(0.790957 -0.00682877 0.00629754)
(0.78353 -0.00636518 0.00574817)
(0.776511 -0.00594352 0.00526438)
(0.769872 -0.00555978 0.00483756)
(0.964197 -0.0157732 0.0241241)
(0.952998 -0.0299542 0.0480973)
(0.933053 -0.0324573 0.0555684)
(0.89518 -0.0306205 0.0566562)
(0.846754 -0.0280731 0.0553176)
(0.796864 -0.0252819 0.0518187)
(0.749715 -0.0221065 0.046385)
(0.706044 -0.0187396 0.0399055)
(0.665682 -0.0155607 0.0333489)
(0.628733 -0.0128271 0.0273395)
(0.59547 -0.0106014 0.0221575)
(0.565982 -0.00883123 0.0178727)
(0.540082 -0.00743361 0.0144332)
(0.5174 -0.00633083 0.0117179)
(0.497512 -0.00545663 0.00958077)
(0.480012 -0.00475584 0.00788626)
(0.464543 -0.00418456 0.00652617)
(0.450801 -0.00371 0.00542126)
(0.438534 -0.00330884 0.00451539)
(0.427533 -0.00296492 0.00376863)
(0.417627 -0.00266686 0.00315174)
(0.408674 -0.00240637 0.00264248)
(0.400557 -0.00217736 0.00222311)
(0.393176 -0.00197527 0.00187892)
(0.386444 -0.00179657 0.00159747)
(0.380289 -0.00163834 0.00136772)
(0.374646 -0.00149814 0.00118029)
(0.369458 -0.00137379 0.00102696)
(0.364676 -0.00126343 0.000902023)
(0.360256 -0.00116534 0.000800645)
(0.356159 -0.00107797 0.000718108)
(0.35235 -0.00100002 0.000650264)
(0.348799 -0.000930332 0.000593879)
(0.963615 0.0155989 0.0123201)
(0.94587 0.0293935 0.0292672)
(0.925716 0.0314712 0.0378959)
(0.895161 0.029317 0.0412205)
(0.858519 0.0267488 0.0420207)
(0.821653 0.024297 0.0411698)
(0.787139 0.0216459 0.0388172)
(0.755024 0.018766 0.0352848)
(0.724712 0.0159137 0.0311187)
(0.695993 0.01333 0.0268214)
(0.669049 0.0111111 0.0227211)
(0.644134 0.00924574 0.0189925)
(0.621374 0.00768984 0.0157131)
(0.600751 0.00640376 0.0128996)
(0.582156 0.0053542 0.0105298)
(0.56544 0.00450808 0.00856005)
(0.550435 0.00383113 0.00693877)
(0.536967 0.00329049 0.00561408)
(0.524864 0.00285746 0.0045377)
(0.51397 0.00250865 0.00366674)
(0.504139 0.0022256 0.00296427)
(0.495245 0.00199386 0.00239944)
(0.487174 0.0018021 0.00194679)
(0.479829 0.00164165 0.00158556)
(0.473124 0.00150574 0.00129911)
(0.466983 0.0013896 0.00107291)
(0.461341 0.00128924 0.000895959)
(0.456142 0.00120226 0.00075426)
(0.451337 0.00112612 0.00064199)
(0.446883 0.00105838 0.000555165)
(0.44274 0.00099746 0.000489012)
(0.438874 0.000942405 0.000438935)
(0.435257 0.000892476 0.000401217)
(1.0003 0.0220598 0.0122839)
(1.0269 0.0447988 0.0304618)
(1.05787 0.0511689 0.0407189)
(1.08383 0.0512228 0.0458579)
(1.10227 0.0502869 0.0486874)
(1.11499 0.0492502 0.0502916)
(1.12419 0.0476214 0.0507454)
(1.13085 0.0452261 0.0500746)
(1.13509 0.0423502 0.0485291)
(1.13688 0.0393547 0.0464354)
(1.13644 0.0364467 0.0440475)
(1.13412 0.0336882 0.0415196)
(1.13028 0.031084 0.0389418)
(1.12527 0.0286368 0.0363739)
(1.11933 0.0263565 0.0338611)
(1.11269 0.0242506 0.0314364)
(1.10551 0.022319 0.0291229)
(1.09797 0.0205543 0.0269348)
(1.09018 0.0189455 0.02488)
(1.08225 0.0174806 0.0229615)
(1.07428 0.0161474 0.0211794)
(1.06634 0.0149345 0.019531)
(1.05848 0.013831 0.0180123)
(1.05075 0.0128269 0.0166172)
(1.04318 0.0119131 0.0153394)
(1.03581 0.0110815 0.0141714)
(1.02865 0.0103244 0.0131064)
(1.02171 0.00963483 0.0121362)
(1.01501 0.00900605 0.0112535)
(1.00853 0.00843171 0.0104512)
(1.00229 0.00790644 0.00972252)
(0.996284 0.00742553 0.00906084)
(0.9905 0.0069847 0.00845993)
(0.999872 0.00876763 0.0121303)
(1.0207 0.0206966 0.0303397)
(1.05133 0.0256639 0.0405356)
(1.08383 0.026702 0.0454677)
(1.11335 0.0267308 0.048135)
(1.13906 0.0267683 0.0498275)
(1.16186 0.0266156 0.0506257)
(1.18248 0.0260044 0.0504402)
(1.20102 0.0249893 0.0494212)
(1.21731 0.0237911 0.0478646)
(1.23128 0.0225803 0.0460275)
(1.24304 0.021421 0.0440624)
(1.25282 0.0203168 0.0420447)
(1.26086 0.0192616 0.0400174)
(1.26735 0.0182569 0.0380141)
(1.27249 0.0173084 0.036063)
(1.27643 0.0164195 0.0341839)
(1.27931 0.0155888 0.0323886)
(1.28126 0.0148125 0.0306823)
(1.28241 0.0140859 0.0290664)
(1.28286 0.0134045 0.0275404)
(1.28271 0.0127642 0.0261027)
(1.28206 0.0121618 0.0247507)
(1.28098 0.0115944 0.0234811)
(1.27953 0.0110594 0.0222897)
(1.27777 0.0105545 0.0211725)
(1.27576 0.0100778 0.020125)
(1.27354 0.00962741 0.0191432)
(1.27114 0.00920157 0.0182229)
(1.26861 0.0087985 0.0173601)
(1.26597 0.00841681 0.0165509)
(1.26324 0.00805521 0.0157917)
(1.26044 0.00771253 0.0150791)
(0.999938 0.00243839 0.0120671)
(1.01757 0.00615353 0.0302458)
(1.04521 0.00800702 0.0404277)
(1.07656 0.00856877 0.045249)
(1.10664 0.00869922 0.0477679)
(1.1338 0.00880783 0.0493488)
(1.15845 0.00887908 0.050097)
(1.18127 0.00881188 0.049888)
(1.20248 0.00859987 0.0488392)
(1.22191 0.00830898 0.0472475)
(1.23942 0.00800028 0.0453897)
(1.25499 0.0076991 0.0434329)
(1.26879 0.0074068 0.0414547)
(1.281 0.00711985 0.039494)
(1.29179 0.00683815 0.0375805)
(1.3013 0.00656414 0.0357397)
(1.30965 0.00630001 0.0339898)
(1.31695 0.00604661 0.0323396)
(1.32331 0.00580372 0.0307906)
(1.32881 0.00557079 0.0293404)
(1.33355 0.00534717 0.0279855)
(1.33761 0.00513242 0.0267212)
(1.34105 0.00492634 0.0255422)
(1.34395 0.00472868 0.0244423)
(1.34636 0.00453905 0.0234154)
(1.34833 0.00435716 0.0224551)
(1.34991 0.00418277 0.0215556)
(1.35113 0.00401572 0.0207113)
(1.35204 0.00385581 0.0199173)
(1.35267 0.00370284 0.0191693)
(1.35304 0.00355663 0.0184633)
(1.35319 0.00341696 0.0177958)
(1.35313 0.00328365 0.0171639)
(0.999938 -0.00243839 0.0120671)
(1.01757 -0.00615353 0.0302458)
(1.04521 -0.00800702 0.0404277)
(1.07656 -0.00856877 0.045249)
(1.10664 -0.00869922 0.0477679)
(1.1338 -0.00880783 0.0493488)
(1.15845 -0.00887908 0.050097)
(1.18127 -0.00881188 0.049888)
(1.20248 -0.00859987 0.0488392)
(1.22191 -0.00830898 0.0472475)
(1.23942 -0.00800028 0.0453897)
(1.25499 -0.0076991 0.0434329)
(1.26879 -0.0074068 0.0414547)
(1.281 -0.00711985 0.039494)
(1.29179 -0.00683815 0.0375805)
(1.3013 -0.00656414 0.0357397)
(1.30965 -0.00630001 0.0339898)
(1.31695 -0.00604661 0.0323396)
(1.32331 -0.00580372 0.0307906)
(1.32881 -0.00557079 0.0293404)
(1.33355 -0.00534717 0.0279855)
(1.33761 -0.00513242 0.0267212)
(1.34105 -0.00492634 0.0255422)
(1.34395 -0.00472868 0.0244423)
(1.34636 -0.00453905 0.0234154)
(1.34833 -0.00435716 0.0224551)
(1.34991 -0.00418277 0.0215556)
(1.35113 -0.00401572 0.0207113)
(1.35204 -0.00385581 0.0199173)
(1.35267 -0.00370284 0.0191693)
(1.35304 -0.00355663 0.0184633)
(1.35319 -0.00341696 0.0177958)
(1.35313 -0.00328365 0.0171639)
(0.999872 -0.00876763 0.0121303)
(1.0207 -0.0206966 0.0303397)
(1.05133 -0.0256639 0.0405356)
(1.08383 -0.026702 0.0454677)
(1.11335 -0.0267308 0.048135)
(1.13906 -0.0267683 0.0498275)
(1.16186 -0.0266156 0.0506257)
(1.18248 -0.0260044 0.0504402)
(1.20102 -0.0249893 0.0494212)
(1.21731 -0.0237911 0.0478646)
(1.23128 -0.0225803 0.0460275)
(1.24304 -0.021421 0.0440624)
(1.25282 -0.0203168 0.0420447)
(1.26086 -0.0192616 0.0400174)
(1.26735 -0.0182569 0.0380141)
(1.27249 -0.0173084 0.036063)
(1.27643 -0.0164195 0.0341839)
(1.27931 -0.0155888 0.0323886)
(1.28126 -0.0148125 0.0306823)
(1.28241 -0.0140859 0.0290664)
(1.28286 -0.0134045 0.0275404)
(1.28271 -0.0127642 0.0261027)
(1.28206 -0.0121618 0.0247507)
(1.28098 -0.0115944 0.0234811)
(1.27953 -0.0110594 0.0222897)
(1.27777 -0.0105545 0.0211725)
(1.27576 -0.0100778 0.020125)
(1.27354 -0.00962741 0.0191432)
(1.27114 -0.00920157 0.0182229)
(1.26861 -0.0087985 0.0173601)
(1.26597 -0.00841681 0.0165509)
(1.26324 -0.00805521 0.0157917)
(1.26044 -0.00771253 0.0150791)
(1.0003 -0.0220598 0.0122839)
(1.0269 -0.0447988 0.0304618)
(1.05787 -0.0511689 0.0407189)
(1.08383 -0.0512228 0.0458579)
(1.10227 -0.0502869 0.0486874)
(1.11499 -0.0492502 0.0502916)
(1.12419 -0.0476214 0.0507454)
(1.13085 -0.0452261 0.0500746)
(1.13509 -0.0423502 0.0485291)
(1.13688 -0.0393547 0.0464354)
(1.13644 -0.0364467 0.0440475)
(1.13412 -0.0336882 0.0415196)
(1.13028 -0.031084 0.0389418)
(1.12527 -0.0286368 0.0363739)
(1.11933 -0.0263565 0.0338611)
(1.11269 -0.0242506 0.0314364)
(1.10551 -0.022319 0.0291229)
(1.09797 -0.0205543 0.0269348)
(1.09018 -0.0189455 0.02488)
(1.08225 -0.0174806 0.0229615)
(1.07428 -0.0161474 0.0211794)
(1.06634 -0.0149345 0.019531)
(1.05848 -0.013831 0.0180123)
(1.05075 -0.0128269 0.0166172)
(1.04318 -0.0119131 0.0153394)
(1.03581 -0.0110815 0.0141714)
(1.02865 -0.0103244 0.0131064)
(1.02171 -0.00963483 0.0121362)
(1.01501 -0.00900605 0.0112535)
(1.00853 -0.00843171 0.0104512)
(1.00229 -0.00790644 0.00972252)
(0.996284 -0.00742553 0.00906084)
(0.9905 -0.0069847 0.00845993)
(0.963615 -0.0155989 0.0123201)
(0.94587 -0.0293935 0.0292672)
(0.925716 -0.0314712 0.0378959)
(0.895161 -0.029317 0.0412205)
(0.858519 -0.0267488 0.0420207)
(0.821653 -0.024297 0.0411698)
(0.787139 -0.0216459 0.0388172)
(0.755024 -0.018766 0.0352848)
(0.724712 -0.0159137 0.0311187)
(0.695993 -0.01333 0.0268214)
(0.669049 -0.0111111 0.0227211)
(0.644134 -0.00924574 0.0189925)
(0.621374 -0.00768984 0.0157131)
(0.600751 -0.00640376 0.0128996)
(0.582156 -0.0053542 0.0105298)
(0.56544 -0.00450808 0.00856005)
(0.550435 -0.00383113 0.00693877)
(0.536967 -0.00329049 0.00561408)
(0.524864 -0.00285746 0.0045377)
(0.51397 -0.00250865 0.00366674)
(0.504139 -0.0022256 0.00296427)
(0.495245 -0.00199386 0.00239944)
(0.487174 -0.0018021 0.00194679)
(0.479829 -0.00164165 0.00158556)
(0.473124 -0.00150574 0.00129911)
(0.466983 -0.0013896 0.00107291)
(0.461341 -0.00128924 0.000895959)
(0.456142 -0.00120226 0.00075426)
(0.451337 -0.00112612 0.00064199)
(0.446883 -0.00105838 0.000555165)
(0.44274 -0.00099746 0.000489012)
(0.438874 -0.000942405 0.000438935)
(0.435257 -0.000892476 0.000401217)
(0.963607 0.0156321 0.00751884)
(0.94153 0.029605 0.0197069)
(0.916909 0.0316847 0.0277262)
(0.883972 0.0293946 0.0319096)
(0.847263 0.0266671 0.0336023)
(0.811846 0.0241436 0.0337464)
(0.779725 0.0215089 0.0326962)
(0.75071 0.0186761 0.0306462)
(0.724027 0.0158543 0.0278846)
(0.6992 0.0132732 0.0247552)
(0.676131 0.0110356 0.0215481)
(0.654864 0.00913666 0.0184578)
(0.635413 0.00753347 0.0155984)
(0.617724 0.00618778 0.0130282)
(0.601701 0.00507167 0.0107677)
(0.587229 0.00415979 0.0088126)
(0.574186 0.00342462 0.00714367)
(0.562441 0.00283748 0.00573402)
(0.551869 0.00237138 0.00455382)
(0.542344 0.00200289 0.0035734)
(0.533752 0.00171246 0.00276476)
(0.525987 0.00148387 0.00210298)
(0.518954 0.00130375 0.00156606)
(0.512567 0.0011609 0.00113436)
(0.506747 0.0010461 0.000790424)
(0.501426 0.000953377 0.00051898)
(0.496542 0.000876842 0.000306142)
(0.49204 0.000816909 0.000147544)
(0.487884 0.000769648 3.21697e-05)
(0.484033 0.000730585 -5.09419e-05)
(0.480453 0.000697144 -0.000109141)
(0.477113 0.000667933 -0.000147512)
(0.473988 0.000641977 -0.000170207)
(1.00036 0.0219961 0.00753619)
(1.02292 0.0448361 0.0204504)
(1.04954 0.0512145 0.0296023)
(1.07294 0.0510595 0.0352924)
(1.09089 0.0498068 0.0387103)
(1.10455 0.0485319 0.0407974)
(1.11562 0.0467938 0.0419136)
(1.12493 0.0443559 0.042157)
(1.1326 0.0414414 0.0416489)
(1.13853 0.0383985 0.0405814)
(1.14276 0.0354502 0.0391482)
(1.14546 0.0326701 0.0374933)
(1.14687 0.0300606 0.0357101)
(1.14718 0.027617 0.0338592)
(1.14659 0.025344 0.0319847)
(1.14522 0.0232487 0.0301202)
(1.14322 0.0213322 0.028292)
(1.14069 0.0195883 0.0265192)
(1.13773 0.0180058 0.0248153)
(1.13442 0.0165724 0.0231895)
(1.13085 0.0152752 0.0216479)
(1.12708 0.0141022 0.0201934)
(1.12317 0.0130416 0.0188273)
(1.11917 0.0120829 0.0175495)
(1.11511 0.0112151 0.0163585)
(1.11103 0.0104298 0.0152525)
(1.10697 0.00971763 0.0142282)
(1.10293 0.00907349 0.0132831)
(1.09893 0.00849015 0.0124132)
(1.095 0.00796012 0.0116136)
(1.09114 0.00747731 0.0108797)
(1.08737 0.00703664 0.0102065)
(1.08368 0.00663362 0.00958962)
(0.999939 0.00870366 0.00748501)
(1.01669 0.0205923 0.0204671)
(1.04293 0.0255262 0.0297121)
(1.07288 0.0264231 0.0354068)
(1.10196 0.0262681 0.0388227)
(1.12862 0.0261585 0.0409989)
(1.15317 0.0259235 0.0423467)
(1.17616 0.0252573 0.0429417)
(1.19773 0.0241747 0.0428586)
(1.21769 0.0228902 0.0422604)
(1.23588 0.021592 0.0413316)
(1.25226 0.0203604 0.0402109)
(1.26696 0.0192045 0.03898)
(1.28011 0.0181163 0.037684)
(1.29186 0.0170947 0.0363529)
(1.30235 0.0161448 0.0350111)
(1.31168 0.0152693 0.0336779)
(1.31995 0.014466 0.0323679)
(1.32726 0.013729 0.0310905)
(1.33371 0.0130514 0.0298516)
(1.33938 0.0124264 0.0286551)
(1.34435 0.0118482 0.0275034)
(1.3487 0.0113119 0.0263978)
(1.35248 0.0108132 0.0253389)
(1.35577 0.0103479 0.0243265)
(1.3586 0.00991263 0.0233598)
(1.36104 0.00950376 0.0224382)
(1.36311 0.00911877 0.0215604)
(1.36487 0.00875524 0.0207252)
(1.36634 0.00841095 0.0199309)
(1.36755 0.00808414 0.0191758)
(1.36853 0.0077734 0.018458)
(1.3693 0.00747756 0.0177758)
(1.00001 0.00241635 0.00745537)
(1.01357 0.00610956 0.020431)
(1.03675 0.00795526 0.0297083)
(1.06551 0.00847958 0.0353866)
(1.09517 0.00856173 0.0387544)
(1.12332 0.00862847 0.0408807)
(1.14972 0.00867375 0.0421989)
(1.17487 0.00858651 0.0427793)
(1.199 0.00834889 0.0426842)
(1.22195 0.0080255 0.0420748)
(1.24348 0.00768384 0.041145)
(1.26346 0.00735545 0.040044)
(1.28191 0.00704394 0.0388581)
(1.29896 0.00674514 0.0376319)
(1.31472 0.00645773 0.0363926)
(1.3293 0.00618357 0.0351619)
(1.34277 0.00592458 0.0339572)
(1.35523 0.00568115 0.0327906)
(1.36674 0.00545237 0.0316687)
(1.37738 0.00523686 0.0305945)
(1.38722 0.00503336 0.0295691)
(1.39633 0.0048409 0.0285922)
(1.40478 0.00465865 0.027663)
(1.41261 0.00448591 0.0267797)