/*--------------------------------*- C++ -*----------------------------------*\
| =========                 |                                                 |
| \\      /  F ield         | OpenFOAM: The Open Source CFD Toolbox           |
|  \\    /   O peration     | Version:  2412                                  |
|   \\  /    A nd           | Website:  www.openfoam.com                      |
|    \\/     M anipulation  |                                                 |
\*---------------------------------------------------------------------------*/
FoamFile
{
    version     2.0;
    format      ascii;
    arch        "LSB;label=32;scalar=64";
    class       volScalarField;
    location    "11.99344559434";
    object      p;
}
// * * * * * * * * * * * * * * * * * * * * * * * * * * * * * * * * * * * * * //

dimensions      [0 2 -2 0 0 0 0];

internalField   nonuniform List<scalar> 
16000
(
1.63845
1.54369
1.46736
1.4164
1.37764
1.34165
1.3065
1.27295
1.2416
1.21241
1.18502
1.15913
1.13449
1.11095
1.0884
1.06677
1.04597
1.02595
1.00664
0.98797
0.969891
0.952344
0.935277
0.918645
0.902405
0.886518
0.870952
0.855677
0.840666
0.825897
0.811349
0.797005
0.782848
1.58658
1.51864
1.45578
1.40864
1.37163
1.33774
1.30443
1.27198
1.2411
1.21204
1.18465
1.15867
1.13393
1.11031
1.08772
1.06607
1.04529
1.02531
1.00604
0.987423
0.969395
0.951898
0.934879
0.91829
0.902088
0.886237
0.870702
0.855454
0.840467
0.825718
0.811188
0.796859
0.782716
1.56528
1.50736
1.45189
1.40783
1.37171
1.33842
1.30571
1.2736
1.24273
1.21346
1.1858
1.15959
1.13466
1.11088
1.08816
1.06642
1.04556
1.0255
1.00618
0.987521
0.969457
0.95193
0.934885
0.918276
0.902059
0.886194
0.870649
0.855393
0.8404
0.825647
0.811114
0.796782
0.782637
1.55657
1.50184
1.44944
1.40697
1.37132
1.33825
1.30581
1.27394
1.24318
1.21391
1.1862
1.15992
1.13493
1.11111
1.08834
1.06656
1.04567
1.0256
1.00626
0.987587
0.969513
0.951977
0.934926
0.91831
0.902086
0.886216
0.870666
0.855405
0.840407
0.825649
0.811111
0.796775
0.782626
1.55657
1.50184
1.44944
1.40697
1.37132
1.33825
1.30581
1.27394
1.24318
1.21391
1.1862
1.15992
1.13493
1.11111
1.08834
1.06656
1.04567
1.0256
1.00626
0.987587
0.969513
0.951977
0.934926
0.91831
0.902086
0.886216
0.870666
0.855405
0.840407
0.825649
0.811111
0.796775
0.782626
1.56528
1.50736
1.45189
1.40783
1.37171
1.33842
1.30571
1.2736
1.24273
1.21346
1.1858
1.15959
1.13466
1.11088
1.08816
1.06642
1.04556
1.0255
1.00618
0.987521
0.969457
0.95193
0.934885
0.918276
0.902059
0.886194
0.870649
0.855393
0.8404
0.825647
0.811114
0.796782
0.782637
1.58658
1.51864
1.45578
1.40864
1.37163
1.33774
1.30443
1.27198
1.2411
1.21204
1.18465
1.15867
1.13393
1.11031
1.08772
1.06607
1.04529
1.02531
1.00604
0.987423
0.969395
0.951898
0.934879
0.91829
0.902088
0.886237
0.870702
0.855454
0.840467
0.825718
0.811188
0.796859
0.782716
1.63845
1.54369
1.46736
1.4164
1.37764
1.34165
1.3065
1.27295
1.2416
1.21241
1.18502
1.15913
1.13449
1.11095
1.0884
1.06677
1.04597
1.02595
1.00664
0.98797
0.969891
0.952344
0.935277
0.918645
0.902405
0.886518
0.870952
0.855677
0.840666
0.825897
0.811349
0.797005
0.782848
1.58449
1.51658
1.4539
1.40714
1.37056
1.33701
1.30397
1.27174
1.24107
1.21219
1.18493
1.15905
1.13439
1.11083
1.08827
1.06663
1.04585
1.02585
1.00656
0.987915
0.969853
0.952319
0.935263
0.918638
0.902402
0.886519
0.870955
0.85568
0.84067
0.8259
0.811352
0.797007
0.78285
1.53334
1.49286
1.44513
1.4027
1.36692
1.33432
1.30246
1.27106
1.24074
1.21193
1.18467
1.15881
1.13416
1.11062
1.08808
1.06647
1.04571
1.02573
1.00646
0.987833
0.969786
0.952267
0.935222
0.918607
0.90238
0.886503
0.870944
0.855674
0.840666
0.825899
0.811352
0.797009
0.782852
1.5122
1.48163
1.44182
1.40276
1.36768
1.33534
1.30395
1.273
1.24283
1.2139
1.18641
1.16031
1.13546
1.11174
1.08904
1.06729
1.04641
1.02633
1.00697
0.988272
0.970164
0.952592
0.935503
0.918849
0.902588
0.886681
0.871095
0.855801
0.840773
0.825987
0.811425
0.797067
0.782898
1.50352
1.4761
1.43951
1.40222
1.36765
1.33542
1.30423
1.27352
1.2435
1.21459
1.18704
1.16086
1.13594
1.11216
1.08942
1.06762
1.04671
1.02659
1.00721
0.988481
0.970355
0.952768
0.935666
0.919
0.902728
0.88681
0.871214
0.85591
0.840872
0.826077
0.811505
0.797138
0.782961
1.50352
1.4761
1.43951
1.40222
1.36765
1.33542
1.30423
1.27352
1.2435
1.21459
1.18704
1.16086
1.13594
1.11216
1.08942
1.06762
1.04671
1.02659
1.00721
0.988481
0.970355
0.952768
0.935666
0.919
0.902728
0.88681
0.871214
0.85591
0.840872
0.826077
0.811505
0.797138
0.782961
1.5122
1.48163
1.44182
1.40276
1.36768
1.33534
1.30395
1.273
1.24283
1.2139
1.18641
1.16031
1.13546
1.11174
1.08904
1.06729
1.04641
1.02633
1.00697
0.988272
0.970164
0.952592
0.935503
0.918849
0.902588
0.886681
0.871095
0.855801
0.840773
0.825987
0.811425
0.797067
0.782898
1.53334
1.49286
1.44513
1.4027
1.36692
1.33432
1.30246
1.27106
1.24074
1.21193
1.18467
1.15881
1.13416
1.11062
1.08808
1.06647
1.04571
1.02573
1.00646
0.987833
0.969786
0.952267
0.935222
0.918607
0.90238
0.886503
0.870944
0.855674
0.840666
0.825899
0.811352
0.797009
0.782852
1.58449
1.51658
1.4539
1.40714
1.37056
1.33701
1.30397
1.27174
1.24107
1.21219
1.18493
1.15905
1.13439
1.11083
1.08827
1.06663
1.04585
1.02585
1.00656
0.987915
0.969853
0.952319
0.935263
0.918638
0.902402
0.886519
0.870955
0.85568
0.84067
0.8259
0.811352
0.797007
0.78285
1.558
1.50052
1.44592
1.4031
1.36829
1.33611
1.30426
1.27286
1.24259
1.21381
1.18652
1.16056
1.13579
1.11211
1.08945
1.06771
1.04684
1.02675
1.00738
0.988657
0.970524
0.952924
0.935807
0.919127
0.902841
0.886913
0.871308
0.855998
0.840956
0.826157
0.811583
0.797215
0.783038
1.507
1.47685
1.43773
1.39954
1.36533
1.33374
1.30294
1.27246
1.24268
1.21408
1.18684
1.16091
1.13616
1.1125
1.08983
1.06808
1.04719
1.02708
1.00768
0.988937
0.970783
0.953164
0.936028
0.91933
0.903028
0.887084
0.871465
0.856142
0.841087
0.826277
0.811694
0.797317
0.783132
1.48619
1.46595
1.435
1.40033
1.36673
1.33516
1.30474
1.27478
1.2453
1.2167
1.1893
1.16315
1.1382
1.11435
1.09149
1.06956
1.04849
1.02822
1.00868
0.989815
0.97155
0.953835
0.936615
0.919842
0.903474
0.887472
0.871802
0.856434
0.84134
0.826497
0.811883
0.797481
0.783273
1.47765
1.46054
1.43286
1.40001
1.3669
1.33537
1.30511
1.27541
1.24614
1.2176
1.19016
1.16394
1.13893
1.11502
1.09211
1.07013
1.04901
1.02869
1.00911
0.990201
0.971903
0.954157
0.936909
0.920112
0.903721
0.887699
0.87201
0.856624
0.841515
0.826657
0.81203
0.797615
0.783395
1.47765
1.46054
1.43286
1.40001
1.3669
1.33537
1.30511
1.27541
1.24614
1.2176
1.19016
1.16394
1.13893
1.11502
1.09211
1.07013
1.04901
1.02869
1.00911
0.990201
0.971903
0.954157
0.936909
0.920112
0.903721
0.887699
0.87201
0.856624
0.841515
0.826657
0.81203
0.797615
0.783395
1.48619
1.46595
1.435
1.40033
1.36673
1.33516
1.30474
1.27478
1.2453
1.2167
1.1893
1.16315
1.1382
1.11435
1.09149
1.06956
1.04849
1.02822
1.00868
0.989815
0.97155
0.953835
0.936615
0.919842
0.903474
0.887472
0.871802
0.856434
0.84134
0.826497
0.811883
0.797481
0.783273
1.507
1.47685
1.43773
1.39954
1.36533
1.33374
1.30294
1.27246
1.24268
1.21408
1.18684
1.16091
1.13616
1.1125
1.08983
1.06808
1.04719
1.02708
1.00768
0.988937
0.970783
0.953164
0.936028
0.91933
0.903028
0.887084
0.871465
0.856142
0.841087
0.826277
0.811694
0.797317
0.783132
1.558
1.50052
1.44592
1.4031
1.36829
1.33611
1.30426
1.27286
1.24259
1.21381
1.18652
1.16056
1.13579
1.11211
1.08945
1.06771
1.04684
1.02675
1.00738
0.988657
0.970524
0.952924
0.935807
0.919127
0.902841
0.886913
0.871308
0.855998
0.840956
0.826157
0.811583
0.797215
0.783038
1.54144
1.48805
1.43795
1.39829
1.36528
1.33427
1.30341
1.27281
1.24312
1.21469
1.18758
1.1617
1.13695
1.11326
1.09056
1.06879
1.04787
1.02773
1.00831
0.989533
0.97135
0.953703
0.936539
0.919813
0.903482
0.887511
0.871866
0.85652
0.841444
0.826612
0.812007
0.79761
0.783405
1.49042
1.46428
1.42982
1.39498
1.36264
1.33214
1.30226
1.27258
1.24342
1.2152
1.18815
1.1623
1.13758
1.11391
1.09121
1.06941
1.04846
1.02829
1.00883
0.990017
0.971798
0.954115
0.936919
0.920162
0.903803
0.887806
0.872136
0.856765
0.841665
0.826814
0.812191
0.797778
0.783559
1.46975
1.45349
1.42726
1.39603
1.36429
1.33376
1.3042
1.27506
1.24626
1.21811
1.19093
1.16488
1.13996
1.11609
1.09319
1.0712
1.05005
1.0297
1.01007
0.991111
0.972759
0.954959
0.937659
0.920811
0.904372
0.888304
0.872573
0.857148
0.842001
0.827109
0.812451
0.798008
0.783763
1.46129
1.44814
1.42518
1.39581
1.36455
1.33404
1.30461
1.27575
1.24719
1.21913
1.19192
1.1658
1.14081
1.11689
1.09393
1.07188
1.05067
1.03026
1.01058
0.991574
0.973181
0.955343
0.938008
0.921129
0.904662
0.88857
0.872817
0.857373
0.84221
0.827303
0.812631
0.798175
0.783918
1.46129
1.44814
1.42518
1.39581
1.36455
1.33404
1.30461
1.27575
1.24719
1.21913
1.19192
1.1658
1.14081
1.11689
1.09393
1.07188
1.05067
1.03026
1.01058
0.991574
0.973181
0.955343
0.938008
0.921129
0.904662
0.88857
0.872817
0.857373
0.84221
0.827303
0.812631
0.798175
0.783918
1.46975
1.45349
1.42726
1.39603
1.36429
1.33376
1.3042
1.27506
1.24626
1.21811
1.19093
1.16488
1.13996
1.11609
1.09319
1.0712
1.05005
1.0297
1.01007
0.991111
0.972759
0.954959
0.937659
0.920811
0.904372
0.888304
0.872573
0.857148
0.842001
0.827109
0.812451
0.798008
0.783763
1.49042
1.46428
1.42982
1.39498
1.36264
1.33214
1.30226
1.27258
1.24342
1.2152
1.18815
1.1623
1.13758
1.11391
1.09121
1.06941
1.04846
1.02829
1.00883
0.990017
0.971798
0.954115
0.936919
0.920162
0.903803
0.887806
0.872136
0.856765
0.841665
0.826814
0.812191
0.797778
0.783559
1.54144
1.48805
1.43795
1.39829
1.36528
1.33427
1.30341
1.27281
1.24312
1.21469
1.18758
1.1617
1.13695
1.11326
1.09056
1.06879
1.04787
1.02773
1.00831
0.989533
0.97135
0.953703
0.936539
0.919813
0.903482
0.887511
0.871866
0.85652
0.841444
0.826612
0.812007
0.79761
0.783405
1.52994
1.47834
1.43076
1.39345
1.36212
1.33223
1.30223
1.27235
1.24321
1.21518
1.18832
1.16259
1.13792
1.11428
1.09159
1.06982
1.04888
1.02872
1.00927
0.990465
0.972247
0.954561
0.937357
0.92059
0.90422
0.888211
0.872528
0.857138
0.84202
0.827152
0.812514
0.798086
0.783853
1.47888
1.45446
1.42252
1.39012
1.35955
1.3302
1.30114
1.27216
1.24357
1.21577
1.18899
1.1633
1.13867
1.11504
1.09236
1.07057
1.0496
1.0294
1.0099
0.99105
0.972787
0.95506
0.937818
0.921015
0.904611
0.888568
0.872854
0.857438
0.842295
0.827404
0.812744
0.798297
0.784045
1.45823
1.44367
1.41997
1.39123
1.36131
1.33193
1.30318
1.27473
1.24652
1.21882
1.19193
1.16605
1.14122
1.1174
1.09451
1.07251
1.05134
1.03094
1.01127
0.992257
0.97385
0.955994
0.938638
0.921734
0.905241
0.889121
0.87334
0.857867
0.842675
0.82774
0.813042
0.798562
0.784282
1.4498
1.43834
1.41791
1.39105
1.36162
1.33226
1.30363
1.27546
1.2475
1.21991
1.193
1.16705
1.14215
1.11827
1.09532
1.07326
1.05202
1.03156
1.01183
0.992762
0.974309
0.95641
0.939015
0.922077
0.905553
0.889406
0.873601
0.858108
0.842899
0.82795
0.813238
0.798744
0.784453
1.4498
1.43834
1.41791
1.39105
1.36162
1.33226
1.30363
1.27546
1.2475
1.21991
1.193
1.16705
1.14215
1.11827
1.09532
1.07326
1.05202
1.03156
1.01183
0.992762
0.974309
0.95641
0.939015
0.922077
0.905553
0.889406
0.873601
0.858108
0.842899
0.82795
0.813238
0.798744
0.784453
1.45823
1.44367
1.41997
1.39123
1.36131
1.33193
1.30318
1.27473
1.24652
1.21882
1.19193
1.16605
1.14122
1.1174
1.09451
1.07251
1.05134
1.03094
1.01127
0.992257
0.97385
0.955994
0.938638
0.921734
0.905241
0.889121
0.87334
0.857867
0.842675
0.82774
0.813042
0.798562
0.784282
1.47888
1.45446
1.42252
1.39012
1.35955
1.3302
1.30114
1.27216
1.24357
1.21577
1.18899
1.1633
1.13867
1.11504
1.09236
1.07057
1.0496
1.0294
1.0099
0.99105
0.972787
0.95506
0.937818
0.921015
0.904611
0.888568
0.872854
0.857438
0.842295
0.827404
0.812744
0.798297
0.784045
1.52994
1.47834
1.43076
1.39345
1.36212
1.33223
1.30223
1.27235
1.24321
1.21518
1.18832
1.16259
1.13792
1.11428
1.09159
1.06982
1.04888
1.02872
1.00927
0.990465
0.972247
0.954561
0.937357
0.92059
0.90422
0.888211
0.872528
0.857138
0.84202
0.827152
0.812514
0.798086
0.783853
1.5217
1.471
1.42489
1.38923
1.35926
1.33035
1.30107
1.27177
1.2431
1.21542
1.18881
1.16324
1.13868
1.1151
1.09245
1.0707
1.04977
1.0296
1.01013
0.991303
0.973058
0.955341
0.938105
0.921305
0.9049
0.888855
0.873136
0.857714
0.842567
0.827671
0.813005
0.79855
0.784292
1.47057
1.44702
1.41653
1.3858
1.35666
1.32834
1.30001
1.2716
1.24348
1.21605
1.18954
1.16403
1.1395
1.11594
1.09329
1.07151
1.05055
1.03033
1.01082
0.991938
0.973645
0.955884
0.938607
0.921768
0.905327
0.889246
0.873494
0.858043
0.842866
0.827943
0.813252
0.798776
0.784498
1.44991
1.4362
1.41395
1.38692
1.35847
1.33014
1.30211
1.27423
1.2465
1.21918
1.19258
1.16688
1.14216
1.1184
1.09554
1.07355
1.05237
1.03196
1.01225
0.993206
0.974761
0.956864
0.939465
0.922519
0.905984
0.889823
0.874001
0.858489
0.843261
0.828292
0.813562
0.799052
0.784744
1.44147
1.43086
1.41189
1.38674
1.35881
1.3305
1.3026
1.27499
1.24751
1.22031
1.1937
1.16793
1.14314
1.11931
1.0964
1.07434
1.05309
1.03261
1.01284
0.993738
0.975242
0.957298
0.939858
0.922874
0.906305
0.890115
0.874269
0.858737
0.843491
0.828506
0.813762
0.799239
0.784919
1.44147
1.43086
1.41189
1.38674
1.35881
1.3305
1.3026
1.27499
1.24751
1.22031
1.1937
1.16793
1.14314
1.11931
1.0964
1.07434
1.05309
1.03261
1.01284
0.993738
0.975242
0.957298
0.939858
0.922874
0.906305
0.890115
0.874269
0.858737
0.843491
0.828506
0.813762
0.799239
0.784919
1.44991
1.4362
1.41395
1.38692
1.35847
1.33014
1.30211
1.27423
1.2465
1.21918
1.19258
1.16688
1.14216
1.1184
1.09554
1.07355
1.05237
1.03196
1.01225
0.993206
0.974761
0.956864
0.939465
0.922519
0.905984
0.889823
0.874001
0.858489
0.843261
0.828292
0.813562
0.799052
0.784744
1.47057
1.44702
1.41653
1.3858
1.35666
1.32834
1.30001
1.2716
1.24348
1.21605
1.18954
1.16403
1.1395
1.11594
1.09329
1.07151
1.05055
1.03033
1.01082
0.991938
0.973645
0.955884
0.938607
0.921768
0.905327
0.889246
0.873494
0.858043
0.842866
0.827943
0.813252
0.798776
0.784498
1.5217
1.471
1.42489
1.38923
1.35926
1.33035
1.30107
1.27177
1.2431
1.21542
1.18881
1.16324
1.13868
1.1151
1.09245
1.0707
1.04977
1.0296
1.01013
0.991303
0.973058
0.955341
0.938105
0.921305
0.9049
0.888855
0.873136
0.857714
0.842567
0.827671
0.813005
0.79855
0.784292
1.5158
1.46561
1.42039
1.38581
1.35685
1.32873
1.30002
1.27118
1.24288
1.21549
1.18909
1.16368
1.13922
1.11571
1.09311
1.07138
1.05046
1.0303
1.01083
0.991986
0.973724
0.955986
0.938727
0.921901
0.90547
0.889398
0.873653
0.858207
0.843035
0.828115
0.813425
0.798949
0.78467
1.46462
1.44156
1.41194
1.38229
1.35419
1.3267
1.29897
1.27101
1.24327
1.21614
1.18986
1.16451
1.14009
1.1166
1.09399
1.07224
1.05128
1.03106
1.01154
0.992643
0.97433
0.956547
0.939244
0.922378
0.905908
0.889799
0.87402
0.858541
0.843339
0.828391
0.813676
0.799177
0.784878
1.44393
1.4307
1.40932
1.38338
1.356
1.32852
1.30111
1.27368
1.24632
1.21932
1.19295
1.16742
1.14281
1.11911
1.0963
1.07433
1.05315
1.03273
1.01301
0.99394
0.975469
0.957544
0.940116
0.923139
0.906573
0.890381
0.87453
0.85899
0.843734
0.82874
0.813986
0.799453
0.785124
1.43548
1.42535
1.40725
1.38321
1.35635
1.32889
1.30161
1.27445
1.24735
1.22047
1.1941
1.16851
1.14383
1.12006
1.09718
1.07514
1.05389
1.0334
1.01361
0.994486
0.975961
0.957987
0.940515
0.923499
0.906898
0.890676
0.874799
0.859238
0.843964
0.828954
0.814186
0.79964
0.785299
1.43548
1.42535
1.40725
1.38321
1.35635
1.32889
1.30161
1.27445
1.24735
1.22047
1.1941
1.16851
1.14383
1.12006
1.09718
1.07514
1.05389
1.0334
1.01361
0.994486
0.975961
0.957987
0.940515
0.923499
0.906898
0.890676
0.874799
0.859238
0.843964
0.828954
0.814186
0.79964
0.785299
1.44393
1.4307
1.40932
1.38338
1.356
1.32852
1.30111
1.27368
1.24632
1.21932
1.19295
1.16742
1.14281
1.11911
1.0963
1.07433
1.05315
1.03273
1.01301
0.99394
0.975469
0.957544
0.940116
0.923139
0.906573
0.890381
0.87453
0.85899
0.843734
0.82874
0.813986
0.799453
0.785124
1.46462
1.44156
1.41194
1.38229
1.35419
1.3267
1.29897
1.27101
1.24327
1.21614
1.18986
1.16451
1.14009
1.1166
1.09399
1.07224
1.05128
1.03106
1.01154
0.992643
0.97433
0.956547
0.939244
0.922378
0.905908
0.889799
0.87402
0.858541
0.843339
0.828391
0.813676
0.799177
0.784878
1.5158
1.46561
1.42039
1.38581
1.35685
1.32873
1.30002
1.27118
1.24288
1.21549
1.18909
1.16368
1.13922
1.11571
1.09311
1.07138
1.05046
1.0303
1.01083
0.991986
0.973724
0.955986
0.938727
0.921901
0.90547
0.889398
0.873653
0.858207
0.843035
0.828115
0.813425
0.798949
0.78467
1.51171
1.46182
1.41713
1.38325
1.35497
1.32742
1.29916
1.27065
1.24263
1.21546
1.18924
1.16395
1.13959
1.11614
1.09358
1.07188
1.05098
1.03082
1.01135
0.992501
0.974227
0.956476
0.9392
0.922357
0.905907
0.889815
0.874051
0.858587
0.843396
0.828457
0.81375
0.799258
0.784963
1.4605
1.43772
1.40862
1.37965
1.35225
1.32536
1.2981
1.27049
1.24302
1.21613
1.19003
1.1648
1.14048
1.11705
1.09448
1.07275
1.05181
1.0316
1.01207
0.993167
0.974842
0.957043
0.939723
0.922837
0.906348
0.890219
0.874419
0.858921
0.8437
0.828733
0.814001
0.799485
0.78517
1.43978
1.42684
1.40597
1.38072
1.35405
1.32719
1.30025
1.27317
1.2461
1.21932
1.19315
1.16776
1.14324
1.1196
1.09682
1.07487
1.05371
1.03328
1.01356
0.994476
0.97599
0.958046
0.940598
0.923601
0.907014
0.8908
0.874928
0.859368
0.844093
0.82908
0.814308
0.799758
0.785414
1.43133
1.42148
1.40389
1.38054
1.3544
1.32757
1.30076
1.27396
1.24714
1.22049
1.19431
1.16887
1.14428
1.12057
1.09772
1.0757
1.05446
1.03396
1.01417
0.99503
0.976487
0.958494
0.941
0.923963
0.90734
0.891096
0.875198
0.859616
0.844323
0.829294
0.814508
0.799945
0.785588
1.43133
1.42148
1.40389
1.38054
1.3544
1.32757
1.30076
1.27396
1.24714
1.22049
1.19431
1.16887
1.14428
1.12057
1.09772
1.0757
1.05446
1.03396
1.01417
0.99503
0.976487
0.958494
0.941
0.923963
0.90734
0.891096
0.875198
0.859616
0.844323
0.829294
0.814508
0.799945
0.785588
1.43978
1.42684
1.40597
1.38072
1.35405
1.32719
1.30025
1.27317
1.2461
1.21932
1.19315
1.16776
1.14324
1.1196
1.09682
1.07487
1.05371
1.03328
1.01356
0.994476
0.97599
0.958046
0.940598
0.923601
0.907014
0.8908
0.874928
0.859368
0.844093
0.82908
0.814308
0.799758
0.785414
1.4605
1.43772
1.40862
1.37965
1.35225
1.32536
1.2981
1.27049
1.24302
1.21613
1.19003
1.1648
1.14048
1.11705
1.09448
1.07275
1.05181
1.0316
1.01207
0.993167
0.974842
0.957043
0.939723
0.922837
0.906348
0.890219
0.874419
0.858921
0.8437
0.828733
0.814001
0.799485
0.78517
1.51171
1.46182
1.41713
1.38325
1.35497
1.32742
1.29916
1.27065
1.24263
1.21546
1.18924
1.16395
1.13959
1.11614
1.09358
1.07188
1.05098
1.03082
1.01135
0.992501
0.974227
0.956476
0.9392
0.922357
0.905907
0.889815
0.874051
0.858587
0.843396
0.828457
0.81375
0.799258
0.784963
1.50913
1.45941
1.41503
1.38154
1.35369
1.32651
1.29854
1.27026
1.24243
1.21541
1.18931
1.16411
1.13981
1.11641
1.09388
1.0722
1.05132
1.03117
1.01169
0.992843
0.974564
0.956804
0.939518
0.922663
0.906201
0.890097
0.87432
0.858843
0.84364
0.828689
0.81397
0.799466
0.785161
1.45789
1.43528
1.40648
1.3779
1.35093
1.32443
1.29747
1.2701
1.24282
1.21608
1.1901
1.16497
1.14072
1.11733
1.0948
1.07309
1.05216
1.03195
1.01242
0.993515
0.975182
0.957373
0.940042
0.923145
0.906642
0.8905
0.874687
0.859177
0.843943
0.828964
0.81422
0.799693
0.785366
1.43716
1.42438
1.4038
1.37895
1.35271
1.32625
1.29963
1.27279
1.24591
1.21929
1.19324
1.16795
1.1435
1.1199
1.09715
1.07522
1.05406
1.03364
1.01392
0.994829
0.976333
0.958379
0.940919
0.923908
0.907308
0.891081
0.875195
0.859622
0.844334
0.829309
0.814525
0.799964
0.785609
1.4287
1.41901
1.40171
1.37876
1.35306
1.32663
1.30014
1.27359
1.24696
1.22046
1.19442
1.16907
1.14455
1.12088
1.09806
1.07605
1.05482
1.03433
1.01454
0.995387
0.976834
0.958829
0.941323
0.924271
0.907635
0.891377
0.875465
0.859869
0.844563
0.829522
0.814724
0.80015
0.785783
1.4287
1.41901
1.40171
1.37876
1.35306
1.32663
1.30014
1.27359
1.24696
1.22046
1.19442
1.16907
1.14455
1.12088
1.09806
1.07605
1.05482
1.03433
1.01454
0.995387
0.976834
0.958829
0.941323
0.924271
0.907635
0.891377
0.875465
0.859869
0.844563
0.829522
0.814724
0.80015
0.785783
1.43716
1.42438
1.4038
1.37895
1.35271
1.32625
1.29963
1.27279
1.24591
1.21929
1.19324
1.16795
1.1435
1.1199
1.09715
1.07522
1.05406
1.03364
1.01392
0.994829
0.976333
0.958379
0.940919
0.923908
0.907308
0.891081
0.875195
0.859622
0.844334
0.829309
0.814525
0.799964
0.785609
1.45789
1.43528
1.40648
1.3779
1.35093
1.32443
1.29747
1.2701
1.24282
1.21608
1.1901
1.16497
1.14072
1.11733
1.0948
1.07309
1.05216
1.03195
1.01242
0.993515
0.975182
0.957373
0.940042
0.923145
0.906642
0.8905
0.874687
0.859177
0.843943
0.828964
0.81422
0.799693
0.785366
1.50913
1.45941
1.41503
1.38154
1.35369
1.32651
1.29854
1.27026
1.24243
1.21541
1.18931
1.16411
1.13981
1.11641
1.09388
1.0722
1.05132
1.03117
1.01169
0.992843
0.974564
0.956804
0.939518
0.922663
0.906201
0.890097
0.87432
0.858843
0.84364
0.828689
0.81397
0.799466
0.785161
1.50787
1.45823
1.41399
1.38069
1.35304
1.32604
1.29822
1.27006
1.24232
1.21538
1.18934
1.16418
1.13992
1.11654
1.09403
1.07236
1.05148
1.03134
1.01186
0.993014
0.974732
0.956968
0.939677
0.922816
0.906348
0.890238
0.874455
0.858971
0.843762
0.828805
0.814081
0.799571
0.785261
1.45663
1.4341
1.40542
1.37703
1.35026
1.32394
1.29714
1.26989
1.24271
1.21604
1.19013
1.16505
1.14083
1.11747
1.09495
1.07325
1.05233
1.03212
1.0126
0.993688
0.975352
0.957539
0.940202
0.923298
0.90679
0.890641
0.874822
0.859305
0.844065
0.829079
0.814329
0.799797
0.785465
1.43589
1.42318
1.40274
1.37806
1.35203
1.32576
1.2993
1.27259
1.2458
1.21926
1.19328
1.16803
1.14362
1.12005
1.09732
1.07539
1.05424
1.03382
1.01409
0.995004
0.976505
0.958545
0.941079
0.924062
0.907455
0.891221
0.875329
0.859749
0.844455
0.829423
0.814634
0.800067
0.785706
1.42743
1.41781
1.40064
1.37787
1.35238
1.32615
1.29982
1.27339
1.24686
1.22044
1.19445
1.16916
1.14467
1.12103
1.09823
1.07623
1.055
1.03451
1.01472
0.995564
0.977007
0.958996
0.941484
0.924426
0.907782
0.891517
0.875599
0.859997
0.844684
0.829636
0.814833
0.800253
0.78588
1.42743
1.41781
1.40064
1.37787
1.35238
1.32615
1.29982
1.27339
1.24686
1.22044
1.19445
1.16916
1.14467
1.12103
1.09823
1.07623
1.055
1.03451
1.01472
0.995564
0.977007
0.958996
0.941484
0.924426
0.907782
0.891517
0.875599
0.859997
0.844684
0.829636
0.814833
0.800253
0.78588
1.43589
1.42318
1.40274
1.37806
1.35203
1.32576
1.2993
1.27259
1.2458
1.21926
1.19328
1.16803
1.14362
1.12005
1.09732
1.07539
1.05424
1.03382
1.01409
0.995004
0.976505
0.958545
0.941079
0.924062
0.907455
0.891221
0.875329
0.859749
0.844455
0.829423
0.814634
0.800067
0.785706
1.45663
1.4341
1.40542
1.37703
1.35026
1.32394
1.29714
1.26989
1.24271
1.21604
1.19013
1.16505
1.14083
1.11747
1.09495
1.07325
1.05233
1.03212
1.0126
0.993688
0.975352
0.957539
0.940202
0.923298
0.90679
0.890641
0.874822
0.859305
0.844065
0.829079
0.814329
0.799797
0.785465
1.50787
1.45823
1.41399
1.38069
1.35304
1.32604
1.29822
1.27006
1.24232
1.21538
1.18934
1.16418
1.13992
1.11654
1.09403
1.07236
1.05148
1.03134
1.01186
0.993014
0.974732
0.956968
0.939677
0.922816
0.906348
0.890238
0.874455
0.858971
0.843762
0.828805
0.814081
0.799571
0.785261
1.50787
1.45823
1.41399
1.38069
1.35304
1.32604
1.29822
1.27006
1.24232
1.21538
1.18934
1.16418
1.13992
1.11654
1.09403
1.07236
1.05148
1.03134
1.01186
0.993014
0.974732
0.956968
0.939677
0.922816
0.906348
0.890238
0.874455
0.858971
0.843762
0.828805
0.814081
0.799571
0.785261
1.45663
1.4341
1.40542
1.37703
1.35026
1.32394
1.29714
1.26989
1.24271
1.21604
1.19013
1.16505
1.14083
1.11747
1.09495
1.07325
1.05233
1.03212
1.0126
0.993688
0.975352
0.957539
0.940202
0.923298
0.90679
0.890641
0.874822
0.859305
0.844065
0.829079
0.814329
0.799797
0.785465
1.43589
1.42318
1.40274
1.37806
1.35203
1.32576
1.2993
1.27259
1.2458
1.21926
1.19328
1.16803
1.14362
1.12005
1.09732
1.07539
1.05424
1.03382
1.01409
0.995004
0.976505
0.958545
0.941079
0.924062
0.907455
0.891221
0.875329
0.859749
0.844455
0.829423
0.814634
0.800067
0.785706
1.42743
1.41781
1.40064
1.37787
1.35238
1.32615
1.29982
1.27339
1.24686
1.22044
1.19445
1.16916
1.14467
1.12103
1.09823
1.07623
1.055
1.03451
1.01472
0.995564
0.977007
0.958996
0.941484
0.924426
0.907782
0.891517
0.875599
0.859997
0.844684
0.829636
0.814833
0.800253
0.78588
1.42743
1.41781
1.40064
1.37787
1.35238
1.32615
1.29982
1.27339
1.24686
1.22044
1.19445
1.16916
1.14467
1.12103
1.09823
1.07623
1.055
1.03451
1.01472
0.995564
0.977007
0.958996
0.941484
0.924426
0.907782
0.891517
0.875599
0.859997
0.844684
0.829636
0.814833
0.800253
0.78588
1.43589
1.42318
1.40274
1.37806
1.35203
1.32576
1.2993
1.27259
1.2458
1.21926
1.19328
1.16803
1.14362
1.12005
1.09732
1.07539
1.05424
1.03382
1.01409
0.995004
0.976505
0.958545
0.941079
0.924062
0.907455
0.891221
0.875329
0.859749
0.844455
0.829423
0.814634
0.800067
0.785706
1.45663
1.4341
1.40542
1.37703
1.35026
1.32394
1.29714
1.26989
1.24271
1.21604
1.19013
1.16505
1.14083
1.11747
1.09495
1.07325
1.05233
1.03212
1.0126
0.993688
0.975352
0.957539
0.940202
0.923298
0.90679
0.890641
0.874822
0.859305
0.844065
0.829079
0.814329
0.799797
0.785465
1.50787
1.45823
1.41399
1.38069
1.35304
1.32604
1.29822
1.27006
1.24232
1.21538
1.18934
1.16418
1.13992
1.11654
1.09403
1.07236
1.05148
1.03134
1.01186
0.993014
0.974732
0.956968
0.939677
0.922816
0.906348
0.890238
0.874455
0.858971
0.843762
0.828805
0.814081
0.799571
0.785261
1.50913
1.45941
1.41503
1.38154
1.35369
1.32651
1.29854
1.27026
1.24243
1.21541
1.18931
1.16411
1.13981
1.11641
1.09388
1.0722
1.05132
1.03117
1.01169
0.992843
0.974564
0.956804
0.939518
0.922663
0.906201
0.890097
0.87432
0.858843
0.84364
0.828689
0.81397
0.799466
0.785161
1.45789
1.43528
1.40648
1.3779
1.35093
1.32443
1.29747
1.2701
1.24282
1.21608
1.1901
1.16497
1.14072
1.11733
1.0948
1.07309
1.05216
1.03195
1.01242
0.993515
0.975182
0.957373
0.940042
0.923145
0.906642
0.8905
0.874687
0.859177
0.843943
0.828964
0.81422
0.799693
0.785366
1.43716
1.42438
1.4038
1.37895
1.35271
1.32625
1.29963
1.27279
1.24591
1.21929
1.19324
1.16795
1.1435
1.1199
1.09715
1.07522
1.05406
1.03364
1.01392
0.994829
0.976333
0.958379
0.940919
0.923908
0.907308
0.891081
0.875195
0.859622
0.844334
0.829309
0.814525
0.799964
0.785609
1.4287
1.41901
1.40171
1.37876
1.35306
1.32663
1.30014
1.27359
1.24696
1.22046
1.19442
1.16907
1.14455
1.12088
1.09806
1.07605
1.05482
1.03433
1.01454
0.995387
0.976834
0.958829
0.941323
0.924271
0.907635
0.891377
0.875465
0.859869
0.844563
0.829522
0.814724
0.80015
0.785783
1.4287
1.41901
1.40171
1.37876
1.35306
1.32663
1.30014
1.27359
1.24696
1.22046
1.19442
1.16907
1.14455
1.12088
1.09806
1.07605
1.05482
1.03433
1.01454
0.995387
0.976834
0.958829
0.941323
0.924271
0.907635
0.891377
0.875465
0.859869
0.844563
0.829522
0.814724
0.80015
0.785783
1.43716
1.42438
1.4038
1.37895
1.35271
1.32625
1.29963
1.27279
1.24591
1.21929
1.19324
1.16795
1.1435
1.1199
1.09715
1.07522
1.05406
1.03364
1.01392
0.994829
0.976333
0.958379
0.940919
0.923908
0.907308
0.891081
0.875195
0.859622
0.844334
0.829309
0.814525
0.799964
0.785609
1.45789
1.43528
1.40648
1.3779
1.35093
1.32443
1.29747
1.2701
1.24282
1.21608
1.1901
1.16497
1.14072
1.11733
1.0948
1.07309
1.05216
1.03195
1.01242
0.993515
0.975182
0.957373
0.940042
0.923145
0.906642
0.8905
0.874687
0.859177
0.843943
0.828964
0.81422
0.799693
0.785366
1.50913
1.45941
1.41503
1.38154
1.35369
1.32651
1.29854
1.27026
1.24243
1.21541
1.18931
1.16411
1.13981
1.11641
1.09388
1.0722
1.05132
1.03117
1.01169
0.992843
0.974564
0.956804
0.939518
0.922663
0.906201
0.890097
0.87432
0.858843
0.84364
0.828689
0.81397
0.799466
0.785161
1.51171
1.46182
1.41713
1.38325
1.35497
1.32742
1.29916
1.27065
1.24263
1.21546
1.18924
1.16395
1.13959
1.11614
1.09358
1.07188
1.05098
1.03082
1.01135
0.992501
0.974227
0.956476
0.9392
0.922357
0.905907
0.889815
0.874051
0.858587
0.843396
0.828457
0.81375
0.799258
0.784963
1.4605
1.43772
1.40862
1.37965
1.35225
1.32536
1.2981
1.27049
1.24302
1.21613
1.19003
1.1648
1.14048
1.11705
1.09448
1.07275
1.05181
1.0316
1.01207
0.993167
0.974842
0.957043
0.939723
0.922837
0.906348
0.890219
0.874419
0.858921
0.8437
0.828733
0.814001
0.799485
0.78517
1.43978
1.42684
1.40597
1.38072
1.35405
1.32719
1.30025
1.27317
1.2461
1.21932
1.19315
1.16776
1.14324
1.1196
1.09682
1.07487
1.05371
1.03328
1.01356
0.994476
0.97599
0.958046
0.940598
0.923601
0.907014
0.8908
0.874928
0.859368
0.844093
0.82908
0.814308
0.799758
0.785414
1.43133
1.42148
1.40389
1.38054
1.3544
1.32757
1.30076
1.27396
1.24714
1.22049
1.19431
1.16887
1.14428
1.12057
1.09772
1.0757
1.05446
1.03396
1.01417
0.99503
0.976487
0.958494
0.941
0.923963
0.90734
0.891096
0.875198
0.859616
0.844323
0.829294
0.814508
0.799945
0.785588
1.43133
1.42148
1.40389
1.38054
1.3544
1.32757
1.30076
1.27396
1.24714
1.22049
1.19431
1.16887
1.14428
1.12057
1.09772
1.0757
1.05446
1.03396
1.01417
0.99503
0.976487
0.958494
0.941
0.923963
0.90734
0.891096
0.875198
0.859616
0.844323
0.829294
0.814508
0.799945
0.785588
1.43978
1.42684
1.40597
1.38072
1.35405
1.32719
1.30025
1.27317
1.2461
1.21932
1.19315
1.16776
1.14324
1.1196
1.09682
1.07487
1.05371
1.03328
1.01356
0.994476
0.97599
0.958046
0.940598
0.923601
0.907014
0.8908
0.874928
0.859368
0.844093
0.82908
0.814308
0.799758
0.785414
1.4605
1.43772
1.40862
1.37965
1.35225
1.32536
1.2981
1.27049
1.24302
1.21613
1.19003
1.1648
1.14048
1.11705
1.09448
1.07275
1.05181
1.0316
1.01207
0.993167
0.974842
0.957043
0.939723
0.922837
0.906348
0.890219
0.874419
0.858921
0.8437
0.828733
0.814001
0.799485
0.78517
1.51171
1.46182
1.41713
1.38325
1.35497
1.32742
1.29916
1.27065
1.24263
1.21546
1.18924
1.16395
1.13959
1.11614
1.09358
1.07188
1.05098
1.03082
1.01135
0.992501
0.974227
0.956476
0.9392
0.922357
0.905907
0.889815
0.874051
0.858587
0.843396
0.828457
0.81375
0.799258
0.784963
1.5158
1.46561
1.42039
1.38581
1.35685
1.32873
1.30002
1.27118
1.24288
1.21549
1.18909
1.16368
1.13922
1.11571
1.09311
1.07138
1.05046
1.0303
1.01083
0.991986
0.973724
0.955986
0.938727
0.921901
0.90547
0.889398
0.873653
0.858207
0.843035
0.828115
0.813425
0.798949
0.78467
1.46462
1.44156
1.41194
1.38229
1.35419
1.3267
1.29897
1.27101
1.24327
1.21614
1.18986
1.16451
1.14009
1.1166
1.09399
1.07224
1.05128
1.03106
1.01154
0.992643
0.97433
0.956547
0.939244
0.922378
0.905908
0.889799
0.87402
0.858541
0.843339
0.828391
0.813676
0.799177
0.784878
1.44393
1.4307
1.40932
1.38338
1.356
1.32852
1.30111
1.27368
1.24632