/*--------------------------------*- C++ -*----------------------------------*\
| =========                 |                                                 |
| \\      /  F ield         | OpenFOAM: The Open Source CFD Toolbox           |
|  \\    /   O peration     | Version:  2412                                  |
|   \\  /    A nd           | Website:  www.openfoam.com                      |
|    \\/     M anipulation  |                                                 |
\*---------------------------------------------------------------------------*/
FoamFile
{
    version     2.0;
    format      ascii;
    arch        "LSB;label=32;scalar=64";
    class       surfaceScalarField;
    location    "24.007941474296214";
    object      phi;
}
// * * * * * * * * * * * * * * * * * * * * * * * * * * * * * * * * * * * * * //

dimensions      [0 3 -1 0 0 0 0];

oriented        oriented;

internalField   nonuniform List<scalar> 
45040
(
0.0023527
7.20596e-05
7.52386e-05
0.00212177
0.000111113
0.000119822
0.00188991
0.000109399
0.000122458
0.00167122
0.000101265
0.000117428
0.00147054
9.15011e-05
0.000109172
0.00129456
7.90818e-05
9.68991e-05
0.00114739
6.50528e-05
8.21172e-05
0.00102844
5.16116e-05
6.73378e-05
0.000933957
4.02708e-05
5.42163e-05
0.000859204
3.14583e-05
4.32947e-05
0.000799665
2.49958e-05
3.4543e-05
0.000751483
2.04749e-05
2.77071e-05
0.000711631
1.74211e-05
2.24308e-05
0.000677907
1.53836e-05
1.83407e-05
0.0006488
1.39909e-05
1.51157e-05
0.000623309
1.29732e-05
1.25177e-05
0.000600767
1.21557e-05
1.03868e-05
0.00058071
1.14365e-05
8.61973e-06
0.0005628
1.07622e-05
7.14825e-06
0.000546766
1.01096e-05
5.92406e-06
0.000532385
9.47136e-06
4.90978e-06
0.000519462
8.84868e-06
4.07427e-06
0.000507826
8.24598e-06
3.39037e-06
0.000497324
7.66812e-06
2.83404e-06
0.00048782
7.11932e-06
2.38411e-06
0.000479196
6.60285e-06
2.02159e-06
0.000471345
6.12082e-06
1.73027e-06
0.000464175
5.67426e-06
1.4956e-06
0.000457605
5.26298e-06
1.30704e-06
0.000451563
4.88583e-06
1.15625e-06
0.000445986
4.54124e-06
1.03548e-06
0.000440821
4.22733e-06
9.38025e-07
3.94178e-06
8.58648e-07
0.00043602
0.00246446
3.21408e-05
7.54547e-05
0.00237903
7.12113e-05
0.000125331
0.00227432
8.27561e-05
0.000131357
0.0021646
8.13927e-05
0.000129587
0.00205135
7.7706e-05
0.000127045
0.00193653
7.21991e-05
0.000121711
0.00182397
6.41199e-05
0.00011349
0.00171738
5.44221e-05
0.00010378
0.00161896
4.47802e-05
9.39065e-05
0.00152966
3.63028e-05
8.44575e-05
0.00144968
2.93682e-05
7.56082e-05
0.00137877
2.39556e-05
6.7426e-05
0.00131635
1.98948e-05
5.99505e-05
0.00126159
1.69535e-05
5.31916e-05
0.00121358
1.48761e-05
4.71265e-05
0.00117142
1.34207e-05
4.17114e-05
0.00113429
1.23868e-05
3.68949e-05
0.00110148
1.16237e-05
3.26254e-05
0.00107236
1.10261e-05
2.88536e-05
0.00104641
1.05247e-05
2.5532e-05
0.00102319
1.00758e-05
2.26155e-05
0.00100233
9.65577e-06
2.0061e-05
0.000983492
9.25135e-06
1.78284e-05
0.000966423
8.85588e-06
1.5881e-05
0.00095089
8.4671e-06
1.41849e-05
0.000936699
8.08557e-06
1.27088e-05
0.000923682
7.71315e-06
1.14244e-05
0.000911698
7.3521e-06
1.03062e-05
0.000900625
7.00455e-06
9.33177e-06
0.000890357
6.67207e-06
8.48147e-06
0.000880804
6.35591e-06
7.73829e-06
0.000871887
6.05743e-06
7.08719e-06
5.77495e-06
6.51561e-06
0.000863538
0.0024447
1.25344e-05
7.49078e-05
0.00235929
3.1944e-05
0.000124679
0.00227185
4.06916e-05
0.000129506
0.00218591
4.10094e-05
0.000126317
0.00210051
3.95743e-05
0.000123529
0.00201585
3.76764e-05
0.000119192
0.00193289
3.46278e-05
0.000112451
0.00185278
3.04364e-05
0.000104092
0.00177641
2.58432e-05
9.53118e-05
0.00170438
2.15458e-05
8.67859e-05
0.00163716
1.78624e-05
7.87218e-05
0.0015751
1.48417e-05
7.11721e-05
0.00151838
1.24387e-05
6.41744e-05
0.00146699
1.05828e-05
5.77627e-05
0.00142073
9.18654e-06
5.19481e-05
0.00137929
8.15374e-06
4.67135e-05
0.00134226
7.39338e-06
4.20235e-05
0.00130922
6.82777e-06
3.78351e-05
0.00127974
6.39791e-06
3.41042e-05
0.00125342
6.06517e-06
3.0785e-05
0.00122986
5.79923e-06
2.78347e-05
0.00120871
5.57408e-06
2.5234e-05
0.00118964
5.37261e-06
2.29453e-05
0.00117238
5.18479e-06
2.09302e-05
0.00115669
5.00484e-06
1.91552e-05
0.00114235
4.82972e-06
1.75901e-05
0.0011292
4.6582e-06
1.62084e-05
0.00111708
4.49012e-06
1.49863e-05
0.00110585
4.3259e-06
1.3903e-05
0.00109542
4.16618e-06
1.29404e-05
0.00108568
4.01164e-06
1.20825e-05
0.00107656
3.86281e-06
1.13153e-05
3.71975e-06
1.06265e-05
0.00106799
0.00243768
-7.06372e-15
7.48536e-05
0.00234468
-1.12364e-14
0.000124945
0.0022558
-7.55265e-15
0.000129571
0.0021711
-5.12437e-15
0.000125709
0.00208836
-3.94181e-15
0.000122319
0.00200823
-3.97859e-15
0.000117801
0.00193174
-4.74458e-15
0.000111118
0.00185935
-7.91478e-15
0.000102828
0.00179113
-1.27211e-14
9.40656e-05
0.00172711
-1.63667e-14
8.55682e-05
0.00166739
-1.71452e-14
7.75778e-05
0.0016121
-1.56038e-14
7.01296e-05
0.00156131
-1.28775e-14
6.32326e-05
0.00151498
-1.03304e-14
5.691e-05
0.00147299
-8.74945e-15
5.1179e-05
0.00143511
-8.08048e-15
4.60322e-05
0.00140107
-8.24515e-15
4.14386e-05
0.00137054
-8.84028e-15
3.73552e-05
0.0013432
-9.84671e-15
3.37337e-05
0.00131873
-1.11657e-14
3.05356e-05
0.0012968
-1.25953e-14
2.7736e-05
0.00127709
-1.44597e-14
2.52808e-05
0.00125933
-1.62295e-14
2.31272e-05
0.00124328
-1.73107e-14
2.12386e-05
0.0012287
-1.78106e-14
1.95815e-05
0.00121541
-1.73755e-14
1.81256e-05
0.00120322
-1.62183e-14
1.6844e-05
0.001192
-1.45197e-14
1.57128e-05
0.00118161
-1.2252e-14
1.47113e-05
0.00117196
-1.03897e-14
1.38217e-05
0.00116294
-8.63905e-15
1.30283e-05
0.00115449
-7.05483e-15
1.2318e-05
-6.42394e-15
1.16791e-05
0.00114653
0.00243768
-1.25344e-05
7.48536e-05
0.00234468
-3.1944e-05
0.000124945
0.0022558
-4.06916e-05
0.000129571
0.0021711
-4.10094e-05
0.000125709
0.00208836
-3.95743e-05
0.000122319
0.00200823
-3.76764e-05
0.000117801
0.00193174
-3.46278e-05
0.000111118
0.00185935
-3.04364e-05
0.000102828
0.00179113
-2.58432e-05
9.40656e-05
0.00172711
-2.15458e-05
8.55682e-05
0.00166739
-1.78624e-05
7.75778e-05
0.0016121
-1.48417e-05
7.01296e-05
0.00156131
-1.24387e-05
6.32326e-05
0.00151498
-1.05828e-05
5.691e-05
0.00147299
-9.18654e-06
5.1179e-05
0.00143511
-8.15374e-06
4.60322e-05
0.00140107
-7.39338e-06
4.14386e-05
0.00137054
-6.82777e-06
3.73552e-05
0.0013432
-6.39791e-06
3.37337e-05
0.00131873
-6.06517e-06
3.05356e-05
0.0012968
-5.79923e-06
2.7736e-05
0.00127709
-5.57408e-06
2.52808e-05
0.00125933
-5.37261e-06
2.31272e-05
0.00124328
-5.18479e-06
2.12386e-05
0.0012287
-5.00484e-06
1.95815e-05
0.00121541
-4.82972e-06
1.81256e-05
0.00120322
-4.6582e-06
1.6844e-05
0.001192
-4.49012e-06
1.57128e-05
0.00118161
-4.3259e-06
1.47113e-05
0.00117196
-4.16618e-06
1.38217e-05
0.00116294
-4.01164e-06
1.30283e-05
0.00115449
-3.86281e-06
1.2318e-05
-3.71975e-06
1.16791e-05
0.00114653
0.0024447
-3.21408e-05
7.49078e-05
0.00235929
-7.12113e-05
0.000124679
0.00227185
-8.27561e-05
0.000129506
0.00218591
-8.13927e-05
0.000126317
0.00210051
-7.7706e-05
0.000123529
0.00201585
-7.21991e-05
0.000119192
0.00193289
-6.41199e-05
0.000112451
0.00185278
-5.44221e-05
0.000104092
0.00177641
-4.47802e-05
9.53118e-05
0.00170438
-3.63028e-05
8.67859e-05
0.00163716
-2.93682e-05
7.87218e-05
0.0015751
-2.39556e-05
7.11721e-05
0.00151838
-1.98948e-05
6.41744e-05
0.00146699
-1.69535e-05
5.77627e-05
0.00142073
-1.48761e-05
5.19481e-05
0.00137929
-1.34207e-05
4.67135e-05
0.00134226
-1.23868e-05
4.20235e-05
0.00130922
-1.16237e-05
3.78351e-05
0.00127974
-1.10261e-05
3.41042e-05
0.00125342
-1.05247e-05
3.0785e-05
0.00122986
-1.00758e-05
2.78347e-05
0.00120871
-9.65577e-06
2.5234e-05
0.00118964
-9.25135e-06
2.29453e-05
0.00117238
-8.85588e-06
2.09302e-05
0.00115669
-8.4671e-06
1.91552e-05
0.00114235
-8.08557e-06
1.75901e-05
0.0011292
-7.71315e-06
1.62084e-05
0.00111708
-7.3521e-06
1.49863e-05
0.00110585
-7.00455e-06
1.3903e-05
0.00109542
-6.67207e-06
1.29404e-05
0.00108568
-6.35591e-06
1.20825e-05
0.00107656
-6.05743e-06
1.13153e-05
-5.77495e-06
1.06265e-05
0.00106799
0.00246446
-7.20596e-05
7.54547e-05
0.00237903
-0.000111113
0.000125331
0.00227432
-0.000109399
0.000131357
0.0021646
-0.000101265
0.000129587
0.00205135
-9.15011e-05
0.000127045
0.00193653
-7.90818e-05
0.000121711
0.00182397
-6.50528e-05
0.00011349
0.00171738
-5.16116e-05
0.00010378
0.00161896
-4.02708e-05
9.39065e-05
0.00152966
-3.14583e-05
8.44575e-05
0.00144968
-2.49958e-05
7.56082e-05
0.00137877
-2.04749e-05
6.7426e-05
0.00131635
-1.74211e-05
5.99505e-05
0.00126159
-1.53836e-05
5.31916e-05
0.00121358
-1.39909e-05
4.71265e-05
0.00117142
-1.29732e-05
4.17114e-05
0.00113429
-1.21557e-05
3.68949e-05
0.00110148
-1.14365e-05
3.26254e-05
0.00107236
-1.07622e-05
2.88536e-05
0.00104641
-1.01096e-05
2.5532e-05
0.00102319
-9.47136e-06
2.26155e-05
0.00100233
-8.84868e-06
2.0061e-05
0.000983492
-8.24598e-06
1.78284e-05
0.000966423
-7.66812e-06
1.5881e-05
0.00095089
-7.11932e-06
1.41849e-05
0.000936699
-6.60285e-06
1.27088e-05
0.000923682
-6.12082e-06
1.14244e-05
0.000911698
-5.67426e-06
1.03062e-05
0.000900625
-5.26298e-06
9.33177e-06
0.000890357
-4.88583e-06
8.48147e-06
0.000880804
-4.54124e-06
7.73829e-06
0.000871887
-4.22733e-06
7.08719e-06
-3.94178e-06
6.51561e-06
0.000863538
0.0023527
7.52386e-05
0.00212177
0.000119822
0.00188991
0.000122458
0.00167122
0.000117428
0.00147054
0.000109172
0.00129456
9.68991e-05
0.00114739
8.21172e-05
0.00102844
6.73378e-05
0.000933957
5.42163e-05
0.000859204
4.32947e-05
0.000799665
3.4543e-05
0.000751483
2.77071e-05
0.000711631
2.24308e-05
0.000677907
1.83407e-05
0.0006488
1.51157e-05
0.000623309
1.25177e-05
0.000600767
1.03868e-05
0.00058071
8.61973e-06
0.0005628
7.14825e-06
0.000546766
5.92406e-06
0.000532385
4.90978e-06
0.000519462
4.07427e-06
0.000507826
3.39037e-06
0.000497324
2.83404e-06
0.00048782
2.38411e-06
0.000479196
2.02159e-06
0.000471345
1.73027e-06
0.000464175
1.4956e-06
0.000457605
1.30704e-06
0.000451563
1.15625e-06
0.000445986
1.03548e-06
0.000440821
9.38025e-07
8.58648e-07
0.00043602
0.00246464
7.22539e-05
3.83413e-05
0.00237903
0.000116485
8.89466e-05
0.00227336
0.000118074
0.000110056
0.00216284
0.000112908
0.000115045
0.00204908
0.000108194
0.000114737
0.00193396
0.000101839
0.00011018
0.0018214
9.34439e-05
0.000101236
0.00171523
8.4148e-05
8.93606e-05
0.00161772
7.51477e-05
7.6571e-05
0.00152978
6.69537e-05
6.42796e-05
0.00145148
5.96555e-05
5.31929e-05
0.00138238
5.3214e-05
4.35948e-05
0.00132171
4.75637e-05
3.55346e-05
0.00126851
4.26277e-05
2.8908e-05
0.00122179
3.83205e-05
2.35239e-05
0.00118058
3.45545e-05
1.91677e-05
0.00114408
3.12493e-05
1.56434e-05
0.00111157
2.83351e-05
1.27878e-05
0.0010825
2.57543e-05
1.04709e-05
0.00105637
2.34596e-05
8.58966e-06
0.00103281
2.14121e-05
7.06232e-06
0.00101148
1.95792e-05
5.82404e-06
0.000992111
1.79334e-05
4.82268e-06
0.000974477
1.64525e-05
4.01569e-06
0.000958375
1.51181e-05
3.36817e-06
0.000943632
1.39149e-05
2.84989e-06
0.000930096
1.28291e-05
2.43707e-06
0.000917635
1.18491e-05
2.10691e-06
0.000906133
1.09642e-05
1.84459e-06
0.000895486
1.01646e-05
1.63904e-06
0.000885601
9.44121e-06
1.47905e-06
0.000876399
8.7861e-06
1.35451e-06
8.19207e-06
1.25758e-06
0.000867808
0.00257737
3.20509e-05
3.82845e-05
0.00265097
7.49485e-05
9.32728e-05
0.00268994
9.08039e-05
0.000119655
0.00271098
9.24731e-05
0.000128979
0.0027208
9.1933e-05
0.000133492
0.0027179
9.0961e-05
0.000135486
0.00270248
8.82295e-05
0.000134127
0.00267724
8.35442e-05
0.000129623
0.00264532
7.78336e-05
0.000123141
0.00260899
7.19962e-05
0.000115748
0.00256975
6.64516e-05
0.00010805
0.00252877
6.12894e-05
0.00010033
0.00248703
5.65021e-05
9.2747e-05
0.00244535
5.20866e-05
8.54194e-05
0.00240431
4.80462e-05
7.84374e-05
0.00236435
4.4372e-05
7.18594e-05
0.00232573
4.10404e-05
6.57161e-05
0.00228866
3.80196e-05
6.00185e-05
0.00225322
3.52773e-05
5.47651e-05
0.00221948
3.27839e-05
4.99462e-05
0.00218745
3.05116e-05
4.55468e-05
0.00215711
2.84334e-05
4.15465e-05
0.00212842
2.65288e-05
3.79219e-05
0.00210133
2.47814e-05
3.46468e-05
0.00207576
2.31774e-05
3.16943e-05
0.00205164
2.17043e-05
2.90371e-05
0.0020289
2.03508e-05
2.66487e-05
0.00200744
1.91065e-05
2.45038e-05
0.0019872
1.7962e-05
2.2579e-05
0.00196808
1.69085e-05
2.08519e-05
0.00195002
1.59381e-05
1.93015e-05
0.00193294
1.50439e-05
1.79085e-05
1.42195e-05
1.66556e-05
0.00191678
0.00255678
1.24297e-05
3.77504e-05
0.00263023
3.34196e-05
9.27593e-05
0.00268723
4.45124e-05
0.000118796
0.00273189
4.67305e-05
0.000127397
0.00276918
4.68428e-05
0.000131333
0.00279864
4.70327e-05
0.000133654
0.00281925
4.6674e-05
0.0001334
0.00283137
4.52266e-05
0.000130295
0.00283634
4.29649e-05
0.000125206
0.00283554
4.04194e-05
0.000119164
0.00282999
3.79161e-05
0.000112803
0.00282052
3.55435e-05
0.000106396
0.00280784
3.32968e-05
0.000100058
0.00279264
3.11726e-05
9.38734e-05
0.00277553
2.91808e-05
8.79217e-05
0.00275703
2.73285e-05
8.22634e-05
0.00273754
2.5614e-05
7.69311e-05
0.00271743
2.40288e-05
7.19351e-05
0.00269698
2.25614e-05
6.72729e-05
0.00267642
2.11976e-05
6.29359e-05
0.00265593
1.99234e-05
5.89134e-05
0.00263566
1.87417e-05
5.51929e-05
0.00261573
1.76478e-05
5.17575e-05
0.00259622
1.66332e-05
4.85886e-05
0.00257719
1.56911e-05
4.56678e-05
0.00255869
1.48162e-05
4.29762e-05
0.00254075
1.40038e-05
4.04957e-05
0.00252339
1.32494e-05
3.8209e-05
0.0025066
1.25487e-05
3.61001e-05
0.0024904
1.18978e-05
3.41537e-05
0.00247477
1.12928e-05
3.23559e-05
0.00245971
1.07305e-05
3.06934e-05
1.02074e-05
2.91545e-05
0.00244519
0.00254973
-6.02275e-15
3.75506e-05
0.00261559
-8.87517e-15
9.25031e-05
0.00267117
-6.84352e-15
0.000118505
0.00271683
-3.71523e-15
0.000126781
0.00275574
-4.77429e-15
0.000130256
0.00278833
-6.62945e-15
0.000132239
0.00281427
-7.07414e-15
0.00013185
0.00283364
-7.18886e-15
0.000128683
0.00284717
-8.31108e-15
0.000123508
0.00285577
-1.04965e-14
0.000117381
0.00286027
-1.26969e-14
0.000110992
0.00286131
-1.46237e-14
0.000104642
0.0028594
-1.50484e-14
9.84343e-05
0.00285505
-1.38042e-14
9.24352e-05
0.0028487
-1.24125e-14
8.67121e-05
0.00284074
-1.04446e-14
8.13208e-05
0.0028315
-8.90158e-15
7.62896e-05
0.00282126
-7.70247e-15
7.16217e-05
0.00281025
-6.85094e-15
6.73054e-05
0.00279866
-6.81683e-15
6.33263e-05
0.00278665
-6.01803e-15
5.96693e-05
0.00277436
-6.59196e-15
5.63128e-05
0.0027619
-9.18538e-15
5.32329e-05
0.00274937
-1.12184e-14
5.04045e-05
0.00273684
-1.42179e-14
4.78043e-05
0.00272437
-1.72249e-14
4.54113e-05
0.00271201
-1.88942e-14
4.32061e-05
0.0026998
-1.99603e-14
4.11705e-05
0.00268777
-1.81396e-14
3.92877e-05
0.00267595
-1.63706e-14
3.75427e-05
0.00266435
-1.40119e-14
3.59223e-05
0.00265298
-9.12862e-15
3.44144e-05
-7.56415e-15
3.30083e-05
0.00264186
0.00254973
-1.24297e-05
3.75506e-05
0.00261559
-3.34196e-05
9.25031e-05
0.00267117
-4.45124e-05
0.000118505
0.00271683
-4.67305e-05
0.000126781
0.00275574
-4.68428e-05
0.000130256
0.00278833
-4.70327e-05
0.000132239
0.00281427
-4.6674e-05
0.00013185
0.00283364
-4.52266e-05
0.000128683
0.00284717
-4.29649e-05
0.000123508
0.00285577
-4.04194e-05
0.000117381
0.00286027
-3.79161e-05
0.000110992
0.00286131
-3.55435e-05
0.000104642
0.0028594
-3.32968e-05
9.84343e-05
0.00285505
-3.11726e-05
9.24352e-05
0.0028487
-2.91808e-05
8.67121e-05
0.00284074
-2.73285e-05
8.13208e-05
0.0028315
-2.5614e-05
7.62896e-05
0.00282126
-2.40288e-05
7.16217e-05
0.00281025
-2.25614e-05
6.73054e-05
0.00279866
-2.11976e-05
6.33263e-05
0.00278665
-1.99234e-05
5.96693e-05
0.00277436
-1.87417e-05
5.63128e-05
0.0027619
-1.76478e-05
5.32329e-05
0.00274937
-1.66332e-05
5.04045e-05
0.00273684
-1.56911e-05
4.78043e-05
0.00272437
-1.48162e-05
4.54113e-05
0.00271201
-1.40038e-05
4.32061e-05
0.0026998
-1.32494e-05
4.11705e-05
0.00268777
-1.25487e-05
3.92877e-05
0.00267595
-1.18978e-05
3.75427e-05
0.00266435
-1.12928e-05
3.59223e-05
0.00265298
-1.07305e-05
3.44144e-05
-1.02074e-05
3.30083e-05
0.00264186
0.00255678
-3.20509e-05
3.77504e-05
0.00263023
-7.49485e-05
9.27593e-05
0.00268723
-9.08039e-05
0.000118796
0.00273189
-9.24731e-05
0.000127397
0.00276918
-9.1933e-05
0.000131333
0.00279864
-9.0961e-05
0.000133654
0.00281925
-8.82295e-05
0.0001334
0.00283137
-8.35442e-05
0.000130295
0.00283634
-7.78336e-05
0.000125206
0.00283554
-7.19962e-05
0.000119164
0.00282999
-6.64516e-05
0.000112803
0.00282052
-6.12894e-05
0.000106396
0.00280784
-5.65021e-05
0.000100058
0.00279264
-5.20866e-05
9.38734e-05
0.00277553
-4.80462e-05
8.79217e-05
0.00275703
-4.4372e-05
8.22634e-05
0.00273754
-4.10404e-05
7.69311e-05
0.00271743
-3.80196e-05
7.19351e-05
0.00269698
-3.52773e-05
6.72729e-05
0.00267642
-3.27839e-05
6.29359e-05
0.00265593
-3.05116e-05
5.89134e-05
0.00263566
-2.84334e-05
5.51929e-05
0.00261573
-2.65288e-05
5.17575e-05
0.00259622
-2.47814e-05
4.85886e-05
0.00257719
-2.31774e-05
4.56678e-05
0.00255869
-2.17043e-05
4.29762e-05
0.00254075
-2.03508e-05
4.04957e-05
0.00252339
-1.91065e-05
3.8209e-05
0.0025066
-1.7962e-05
3.61001e-05
0.0024904
-1.69085e-05
3.41537e-05
0.00247477
-1.59381e-05
3.23559e-05
0.00245971
-1.50439e-05
3.06934e-05
-1.42195e-05
2.91545e-05
0.00244519
0.00257737
-7.22539e-05
3.82845e-05
0.00265097
-0.000116485
9.32728e-05
0.00268994
-0.000118074
0.000119655
0.00271098
-0.000112908
0.000128979
0.0027208
-0.000108194
0.000133492
0.0027179
-0.000101839
0.000135486
0.00270248
-9.34439e-05
0.000134127
0.00267724
-8.4148e-05
0.000129623
0.00264532
-7.51477e-05
0.000123141
0.00260899
-6.69537e-05
0.000115748
0.00256975
-5.96555e-05
0.00010805
0.00252877
-5.3214e-05
0.00010033
0.00248703
-4.75637e-05
9.2747e-05
0.00244535
-4.26277e-05
8.54194e-05
0.00240431
-3.83205e-05
7.84374e-05
0.00236435
-3.45545e-05
7.18594e-05
0.00232573
-3.12493e-05
6.57161e-05
0.00228866
-2.83351e-05
6.00185e-05
0.00225322
-2.57543e-05
5.47651e-05
0.00221948
-2.34596e-05
4.99462e-05
0.00218745
-2.14121e-05
4.55468e-05
0.00215711
-1.95792e-05
4.15465e-05
0.00212842
-1.79334e-05
3.79219e-05
0.00210133
-1.64525e-05
3.46468e-05
0.00207576
-1.51181e-05
3.16943e-05
0.00205164
-1.39149e-05
2.90371e-05
0.0020289
-1.28291e-05
2.66487e-05
0.00200744
-1.18491e-05
2.45038e-05
0.0019872
-1.09642e-05
2.2579e-05
0.00196808
-1.01646e-05
2.08519e-05
0.00195002
-9.44121e-06
1.93015e-05
0.00193294
-8.7861e-06
1.79085e-05
-8.19207e-06
1.66556e-05
0.00191678
0.00246464
3.83413e-05
0.00237903
8.89466e-05
0.00227336
0.000110056
0.00216284
0.000115045
0.00204908
0.000114737
0.00193396
0.00011018
0.0018214
0.000101236
0.00171523
8.93606e-05
0.00161772
7.6571e-05
0.00152978
6.42796e-05
0.00145148
5.31929e-05
0.00138238
4.35948e-05
0.00132171
3.55346e-05
0.00126851
2.8908e-05
0.00122179
2.35239e-05
0.00118058
1.91677e-05
0.00114408
1.56434e-05
0.00111157
1.27878e-05
0.0010825
1.04709e-05
0.00105637
8.58966e-06
0.00103281
7.06232e-06
0.00101148
5.82404e-06
0.000992111
4.82268e-06
0.000974477
4.01569e-06
0.000958375
3.36817e-06
0.000943632
2.84989e-06
0.000930096
2.43707e-06
0.000917635
2.10691e-06
0.000906133
1.84459e-06
0.000895486
1.63904e-06
0.000885601
1.47905e-06
0.000876399
1.35451e-06
1.25758e-06
0.000867808
0.00244431
7.17183e-05
2.23102e-05
0.00235768
0.000115804
5.97783e-05
0.00226818
0.000116179
8.33756e-05
0.0021809
0.000109593
9.27312e-05
0.00209534
0.00010463
9.56615e-05
0.00201128
9.92526e-05
9.49944e-05
0.00192931
9.23269e-05
9.08758e-05
0.00185054
8.43739e-05
8.37544e-05
0.00177592
7.64053e-05
7.47925e-05
0.00170603
6.89708e-05
6.51951e-05
0.00164124
6.21884e-05
5.57974e-05
0.00158173
5.60349e-05
4.70693e-05
0.00152753
5.04816e-05
3.9247e-05
0.00147851
4.55095e-05
3.24188e-05
0.00143437
4.10905e-05
2.65727e-05
0.00139473
3.7181e-05
2.16343e-05
0.00135914
3.37276e-05
1.75016e-05
0.00132718
3.06755e-05
1.40692e-05
0.00129844
2.79732e-05
1.12368e-05
0.00127255
2.55753e-05
8.91353e-06
0.00124915
2.34423e-05
7.01878e-06
0.00122795
2.15395e-05
5.48319e-06
0.00120869
1.98365e-05
4.2479e-06
0.00119113
1.83077e-05
3.26354e-06
0.00117508
1.6932e-05
2.48736e-06
0.00116036
1.56925e-05
1.88143e-06
0.00114681
1.4574e-05
1.40999e-06
0.00113431
1.35628e-05
1.04227e-06
0.00112274
1.26458e-05
7.68378e-07
0.001112
1.18147e-05
5.70108e-07
0.00110198
1.10605e-05
4.29598e-07
0.00109263
1.03747e-05
3.33346e-07
9.74984e-06
2.71081e-07
0.00108387
0.0025562
3.1535e-05
2.22691e-05
0.00262865
7.43953e-05
6.22278e-05
0.00268467
8.98326e-05
8.99885e-05
0.00272901
9.06982e-05
0.000103531
0.00276688
8.95085e-05
0.000110745
0.00279759
8.87417e-05
0.000115279
0.00281974
8.69221e-05
0.000117383
0.00283355
8.33673e-05
0.000116821
0.00284036
7.86958e-05
0.000114046
0.00284147
7.37617e-05
0.000109847
0.00283782
6.90156e-05
0.000104867
0.00283016
6.45478e-05
9.94802e-05
0.00281917
6.03258e-05
9.38939e-05
0.00280551
5.63355e-05
8.82461e-05
0.0027898
5.25945e-05
8.26468e-05
0.00277254
4.91213e-05
7.71819e-05
0.00275415
4.59173e-05
7.19129e-05
0.002735
4.29689e-05
6.68805e-05
0.00271537
4.02561e-05
6.21099e-05
0.00269551
3.77582e-05
5.76177e-05
0.00267563
3.54558e-05
5.34129e-05
0.00265589
3.33314e-05
4.94962e-05
0.00263642
3.13696e-05
4.5862e-05
0.00261732
2.9558e-05
4.24994e-05
0.00259866
2.78843e-05
3.93984e-05
0.00258051
2.63367e-05
3.65477e-05
0.00256289
2.49041e-05
3.39328e-05
0.00254584
2.35768e-05
3.15368e-05
0.00252938
2.23449e-05
2.93486e-05
0.00251349
2.11994e-05
2.73547e-05
0.00249818
2.01327e-05
2.55394e-05
0.00248344
1.9138e-05
2.3887e-05
1.82093e-05
2.23828e-05
0.00246925
0.00253501
1.22178e-05
2.20556e-05
0.00260655
3.33342e-05
6.22852e-05
0.0026806
4.43108e-05
9.02666e-05
0.00274888
4.61966e-05
0.000103617
0.00281317
4.59674e-05
0.000110582
0.00287426
4.61046e-05
0.000115202
0.00293046
4.61182e-05
0.000118001
0.00298033
4.5247e-05
0.000118548
0.00302363
4.35577e-05
0.000117039
0.00306088
4.15247e-05
0.000114157
0.00309266
3.94934e-05
0.000110538
0.0031195
3.75593e-05
0.000106554
0.00314181
3.57003e-05
0.000102374
0.00316003
3.38961e-05
9.80918e-05
0.0031746
3.21565e-05
9.37882e-05
0.00318595
3.05009e-05
8.95362e-05
0.00319446
2.89403e-05
8.53916e-05
0.0032005
2.74743e-05
8.13891e-05
0.00320439
2.60971e-05
7.75485e-05
0.0032064
2.48013e-05
7.388e-05
0.0032068
2.35807e-05
7.03884e-05
0.00320582
2.24312e-05
6.70745e-05
0.00320366
2.13484e-05
6.39362e-05
0.00320051
2.03324e-05
6.09687e-05
0.00319651
1.938e-05
5.81673e-05
0.00319181
1.84853e-05
5.55262e-05
0.00318653
1.76441e-05
5.30384e-05
0.00318077
1.68528e-05
5.06958e-05
0.00317461
1.61079e-05
4.84902e-05
0.00316815
1.54057e-05
4.64135e-05
0.00316144
1.4743e-05
4.44582e-05
0.00315453
1.41171e-05
4.26163e-05
1.35255e-05
4.08807e-05
0.00314749
0.00252782
-5.05795e-15
2.19437e-05
0.00259152
-4.09032e-15
6.2144e-05
0.00266413
-1.70736e-16
9.02029e-05
0.00273366
-1.24036e-16
0.000103446
0.0027997
-4.34101e-15
0.000110184
0.00286349
-8.6487e-15
0.000114555
0.00292424
-1.08795e-14
0.00011722
0.00298045
-1.081e-14
0.000117717
0.00303135
-1.04858e-14
0.000116168
0.00307702
-1.09752e-14
0.000113239
0.0031179
-1.10874e-14
0.000109604
0.00315443
-1.19119e-14
0.00010567
0.00318695
-1.27635e-14
0.000101615
0.00321576
-1.16335e-14
9.75213e-05
0.00324117
-1.13597e-14
9.34576e-05
0.0032635
-1.04849e-14
8.94905e-05
0.00328306
-9.27976e-15
8.56712e-05
0.00330012
-8.61148e-15
8.2029e-05
0.00331495
-7.39985e-15
7.8576e-05
0.00332776
-8.14813e-15
7.53142e-05
0.00333877
-7.57885e-15
7.22411e-05
0.00334817
-6.09783e-15
6.93516e-05
0.00335611
-8.63817e-15
6.66379e-05
0.00336276
-1.02596e-14
6.40911e-05
0.00336824
-1.11833e-14
6.17002e-05
0.00337268
-1.42915e-14
5.94532e-05
0.00337619
-1.63771e-14
5.73398e-05
0.00337887
-1.89855e-14
5.5349e-05
0.00338079
-1.76508e-14
5.34708e-05
0.00338204
-1.67699e-14
5.16957e-05
0.00338269
-1.85801e-14
5.00156e-05
0.0033828
-1.12895e-14
4.84225e-05
-1.04135e-14
4.69098e-05
0.00338243
0.00252782
-1.22178e-05
2.19437e-05
0.00259152
-3.33342e-05
6.2144e-05
0.00266413
-4.43108e-05
9.02029e-05
0.00273366
-4.61966e-05
0.000103446
0.0027997
-4.59674e-05
0.000110184
0.00286349
-4.61046e-05
0.000114555
0.00292424
-4.61182e-05
0.00011722
0.00298045
-4.5247e-05
0.000117717
0.00303135
-4.35577e-05
0.000116168
0.00307702
-4.15247e-05
0.000113239
0.0031179
-3.94934e-05
0.000109604
0.00315443
-3.75593e-05
0.00010567
0.00318695
-3.57003e-05
0.000101615
0.00321576
-3.38961e-05
9.75213e-05
0.00324117
-3.21565e-05
9.34576e-05
0.0032635
-3.05009e-05
8.94905e-05
0.00328306
-2.89403e-05
8.56712e-05
0.00330012
-2.74743e-05
8.2029e-05
0.00331495
-2.60971e-05
7.8576e-05
0.00332776
-2.48013e-05
7.53142e-05
0.00333877
-2.35807e-05
7.22411e-05
0.00334817
-2.24312e-05
6.93516e-05
0.00335611
-2.13484e-05
6.66379e-05
0.00336276
-2.03324e-05
6.40911e-05
0.00336824
-1.938e-05
6.17002e-05
0.00337268
-1.84853e-05
5.94532e-05
0.00337619
-1.76441e-05
5.73398e-05
0.00337887
-1.68528e-05
5.5349e-05
0.00338079
-1.61079e-05
5.34708e-05
0.00338204
-1.54057e-05
5.16957e-05
0.00338269
-1.4743e-05
5.00156e-05
0.0033828
-1.41171e-05
4.84225e-05
-1.35255e-05
4.69098e-05
0.00338243
0.00253501
-3.1535e-05
2.20556e-05
0.00260655
-7.43953e-05
6.22852e-05
0.0026806
-8.98326e-05
9.02666e-05
0.00274888
-9.06982e-05
0.000103617
0.00281317
-8.95085e-05
0.000110582
0.00287426
-8.87417e-05
0.000115202
0.00293046
-8.69221e-05
0.000118001
0.00298033
-8.33673e-05
0.000118548
0.00302363
-7.86958e-05
0.000117039
0.00306088
-7.37617e-05
0.000114157
0.00309266
-6.90156e-05
0.000110538
0.0031195
-6.45478e-05
0.000106554
0.00314181
-6.03258e-05
0.000102374
0.00316003
-5.63355e-05
9.80918e-05
0.0031746
-5.25945e-05
9.37882e-05
0.00318595
-4.91213e-05
8.95362e-05
0.00319446
-4.59173e-05
8.53916e-05
0.0032005
-4.29689e-05
8.13891e-05
0.00320439
-4.02561e-05
7.75485e-05
0.0032064
-3.77582e-05
7.388e-05
0.0032068
-3.54558e-05
7.03884e-05
0.00320582
-3.33314e-05
6.70745e-05
0.00320366
-3.13696e-05
6.39362e-05
0.00320051
-2.9558e-05
6.09687e-05
0.00319651
-2.78843e-05
5.81673e-05
0.00319181
-2.63367e-05
5.55262e-05
0.00318653
-2.49041e-05
5.30384e-05
0.00318077
-2.35768e-05
5.06958e-05
0.00317461
-2.23449e-05
4.84902e-05
0.00316815
-2.11994e-05
4.64135e-05
0.00316144
-2.01327e-05
4.44582e-05
0.00315453
-1.9138e-05
4.26163e-05
-1.82093e-05
4.08807e-05
0.00314749
0.0025562
-7.17183e-05
2.22691e-05
0.00262865
-0.000115804
6.22278e-05
0.00268467
-0.000116179
8.99885e-05
0.00272901
-0.000109593
0.000103531
0.00276688
-0.00010463
0.000110745
0.00279759
-9.92526e-05
0.000115279
0.00281974
-9.23269e-05
0.000117383
0.00283355
-8.43739e-05
0.000116821
0.00284036
-7.64053e-05
0.000114046
0.00284147
-6.89708e-05
0.000109847
0.00283782
-6.21884e-05
0.000104867
0.00283016
-5.60349e-05
9.94802e-05
0.00281917
-5.04816e-05
9.38939e-05
0.00280551
-4.55095e-05
8.82461e-05
0.0027898
-4.10905e-05
8.26468e-05
0.00277254
-3.7181e-05
7.71819e-05
0.00275415
-3.37276e-05
7.19129e-05
0.002735
-3.06755e-05
6.68805e-05
0.00271537
-2.79732e-05
6.21099e-05
0.00269551
-2.55753e-05
5.76177e-05
0.00267563
-2.34423e-05
5.34129e-05
0.00265589
-2.15395e-05
4.94962e-05
0.00263642
-1.98365e-05
4.5862e-05
0.00261732
-1.83077e-05
4.24994e-05
0.00259866
-1.6932e-05
3.93984e-05
0.00258051
-1.56925e-05
3.65477e-05
0.00256289
-1.4574e-05
3.39328e-05
0.00254584
-1.35628e-05
3.15368e-05
0.00252938
-1.26458e-05
2.93486e-05
0.00251349
-1.18147e-05
2.73547e-05
0.00249818
-1.10605e-05
2.55394e-05
0.00248344
-1.03747e-05
2.3887e-05
-9.74984e-06
2.23828e-05
0.00246925
0.00244431
2.23102e-05
0.00235768
5.97783e-05
0.00226818
8.33756e-05
0.0021809
9.27312e-05
0.00209534
9.56615e-05
0.00201128
9.49944e-05
0.00192931
9.08758e-05
0.00185054
8.37544e-05
0.00177592
7.47925e-05
0.00170603
6.51951e-05
0.00164124
5.57974e-05
0.00158173
4.70693e-05
0.00152753
3.9247e-05
0.00147851
3.24188e-05
0.00143437
2.65727e-05
0.00139473
2.16343e-05
0.00135914
1.75016e-05
0.00132718
1.40692e-05
0.00129844
1.12368e-05
0.00127255
8.91353e-06
0.00124915
7.01878e-06
0.00122795
5.48319e-06
0.00120869
4.2479e-06
0.00119113
3.26354e-06
0.00117508
2.48736e-06
0.00116036
1.88143e-06
0.00114681
1.40999e-06
0.00113431
1.04227e-06
0.00112274
7.68378e-07
0.001112
5.70108e-07
0.00110198
4.29598e-07
0.00109263
3.33346e-07
2.71081e-07
0.00108387
0.00243585
7.17082e-05
1.47565e-05
0.00233793
0.000116262
4.14343e-05
0.00224315
0.000116552
6.16006e-05
0.00215438
0.000109307
7.21901e-05
0.00206993
0.000103623
7.64964e-05
0.00198982
9.79034e-05
7.71999e-05
0.00191452
9.09263e-05
7.52436e-05
0.00184433
8.29884e-05
7.0958e-05
0.00177922
7.4984e-05
6.49163e-05
0.00171903
6.74809e-05
5.7903e-05
0.00166359
6.06314e-05
5.06114e-05
0.00161274
5.44154e-05
4.35083e-05
0.00156632
4.8791e-05
3.6867e-05
0.00152417
4.37325e-05
3.08379e-05
0.00148604
3.92199e-05
2.54835e-05
0.00145164
3.52236e-05
2.08091e-05
0.00142066
3.17015e-05
1.67836e-05
0.00139277
2.86054e-05
1.33564e-05
0.00136765
2.5886e-05
1.04682e-05
0.00134501
2.34969e-05
8.05707e-06
0.00132457
2.13952e-05
6.06291e-06
0.00130608
1.95417e-05
4.43115e-06
0.00128931
1.79029e-05
3.1112e-06
0.00127406
1.64597e-05
2.05491e-06
0.00126015
1.51839e-05
1.2207e-06
0.0012474
1.4053e-05
5.74809e-07
0.00123566
1.3047e-05
1.02104e-07
0.00122485
1.21631e-05
-3.13044e-07
0.00121485
1.13742e-05
-6.07356e-07
0.00120557
1.06626e-05
-8.08839e-07
0.00119693
1.00183e-05
-9.4328e-07
0.00118885
9.43353e-06
-1.02473e-06
8.90095e-06
-1.0645e-06
0.00118128
0.00254783
3.13366e-05
1.48081e-05
0.00260916
7.4161e-05
4.29997e-05
0.0026602
8.95471e-05
6.59527e-05
0.00270304
9.0025e-05
7.99724e-05
0.00274103
8.82791e-05
8.81002e-05
0.00277409
8.70676e-05
9.30609e-05
0.00280141
8.50208e-05
9.59698e-05
0.00282297
8.13252e-05
9.6922e-05
0.00283945
7.64807e-05
9.60617e-05
0.00285163
7.13377e-05
9.38181e-05
0.00286005
6.64004e-05
9.06782e-05
0.00286514
6.17956e-05
8.70036e-05
0.00286732
5.74923e-05
8.30139e-05
0.00286699
5.34619e-05
7.88456e-05
0.00286455
4.97114e-05
7.45994e-05
0.00286034
4.62566e-05
7.03575e-05
0.00285467
4.30988e-05
6.61844e-05
0.00284781
4.02225e-05
6.21262e-05
0.00283998
3.76036e-05
5.82164e-05
0.0028314
3.52173e-05
5.44786e-05
0.00282224
3.30404e-05
5.09281e-05
0.00281266
3.1053e-05
4.75699e-05
0.00280278
2.92365e-05
4.4408e-05
0.00279271
2.75754e-05
4.14463e-05
0.00278256
2.6053e-05
3.86833e-05
0.00277239
2.46561e-05
3.61146e-05
0.00276226
2.33696e-05
3.37367e-05
0.00275223
2.21819e-05
3.15481e-05
0.00274234
2.10853e-05
2.95335e-05
0.00273261
2.00694e-05
2.7678e-05
0.00272307
1.9125e-05
2.59717e-05
0.00271374
1.82445e-05
2.44049e-05
1.74219e-05