/*--------------------------------*- C++ -*----------------------------------*\
| =========                 |                                                 |
| \\      /  F ield         | OpenFOAM: The Open Source CFD Toolbox           |
|  \\    /   O peration     | Version:  2412                                  |
|   \\  /    A nd           | Website:  www.openfoam.com                      |
|    \\/     M anipulation  |                                                 |
\*---------------------------------------------------------------------------*/
FoamFile
{
    version     2.0;
    format      ascii;
    arch        "LSB;label=32;scalar=64";
    class       volScalarField;
    location    "34.006445452401067";
    object      p;
}
// * * * * * * * * * * * * * * * * * * * * * * * * * * * * * * * * * * * * * //

dimensions      [0 2 -2 0 0 0 0];

internalField   nonuniform List<scalar> 
16000
(
1.63845
1.54369
1.46736
1.4164
1.37763
1.34165
1.3065
1.27295
1.2416
1.2124
1.18502
1.15912
1.13448
1.11094
1.0884
1.06677
1.04597
1.02595
1.00663
0.987968
0.969889
0.952342
0.935275
0.918643
0.902402
0.886516
0.87095
0.855675
0.840664
0.825895
0.811347
0.797003
0.782846
1.58658
1.51864
1.45577
1.40864
1.37163
1.33774
1.30443
1.27197
1.2411
1.21204
1.18464
1.15867
1.13393
1.11031
1.08772
1.06607
1.04529
1.0253
1.00604
0.987421
0.969393
0.951896
0.934876
0.918287
0.902086
0.886235
0.8707
0.855452
0.840465
0.825716
0.811186
0.796857
0.782714
1.56528
1.50736
1.45189
1.40783
1.37171
1.33842
1.30571
1.2736
1.24273
1.21346
1.1858
1.15959
1.13465
1.11088
1.08816
1.06641
1.04555
1.0255
1.00618
0.987519
0.969455
0.951927
0.934883
0.918274
0.902057
0.886192
0.870647
0.855391
0.840398
0.825645
0.811112
0.79678
0.782635
1.55657
1.50184
1.44943
1.40697
1.37132
1.33824
1.30581
1.27394
1.24318
1.21391
1.1862
1.15992
1.13493
1.1111
1.08834
1.06656
1.04567
1.0256
1.00626
0.987585
0.96951
0.951975
0.934923
0.918308
0.902084
0.886214
0.870664
0.855402
0.840405
0.825647
0.811109
0.796773
0.782624
1.55657
1.50184
1.44943
1.40697
1.37132
1.33824
1.30581
1.27394
1.24318
1.21391
1.1862
1.15992
1.13493
1.1111
1.08834
1.06656
1.04567
1.0256
1.00626
0.987585
0.96951
0.951975
0.934923
0.918308
0.902084
0.886214
0.870664
0.855402
0.840405
0.825647
0.811109
0.796773
0.782624
1.56528
1.50736
1.45189
1.40783
1.37171
1.33842
1.30571
1.2736
1.24273
1.21346
1.1858
1.15959
1.13465
1.11088
1.08816
1.06641
1.04555
1.0255
1.00618
0.987519
0.969455
0.951927
0.934883
0.918274
0.902057
0.886192
0.870647
0.855391
0.840398
0.825645
0.811112
0.79678
0.782635
1.58658
1.51864
1.45577
1.40864
1.37163
1.33774
1.30443
1.27197
1.2411
1.21204
1.18464
1.15867
1.13393
1.11031
1.08772
1.06607
1.04529
1.0253
1.00604
0.987421
0.969393
0.951896
0.934876
0.918287
0.902086
0.886235
0.8707
0.855452
0.840465
0.825716
0.811186
0.796857
0.782714
1.63845
1.54369
1.46736
1.4164
1.37763
1.34165
1.3065
1.27295
1.2416
1.2124
1.18502
1.15912
1.13448
1.11094
1.0884
1.06677
1.04597
1.02595
1.00663
0.987968
0.969889
0.952342
0.935275
0.918643
0.902402
0.886516
0.87095
0.855675
0.840664
0.825895
0.811347
0.797003
0.782846
1.58449
1.51658
1.4539
1.40714
1.37056
1.33701
1.30397
1.27174
1.24107
1.21218
1.18492
1.15905
1.13439
1.11082
1.08826
1.06663
1.04585
1.02585
1.00656
0.987913
0.969851
0.952317
0.935261
0.918636
0.9024
0.886517
0.870953
0.855678
0.840668
0.825898
0.81135
0.797005
0.782848
1.53334
1.49286
1.44513
1.4027
1.36692
1.33431
1.30246
1.27106
1.24074
1.21193
1.18467
1.1588
1.13416
1.11062
1.08808
1.06647
1.04571
1.02573
1.00646
0.98783
0.969784
0.952264
0.93522
0.918605
0.902378
0.886501
0.870942
0.855672
0.840664
0.825897
0.81135
0.797007
0.78285
1.51219
1.48162
1.44181
1.40276
1.36768
1.33533
1.30395
1.273
1.24283
1.2139
1.18641
1.16031
1.13546
1.11174
1.08904
1.06729
1.04641
1.02633
1.00697
0.98827
0.970162
0.95259
0.935501
0.918847
0.902585
0.886679
0.871093
0.855799
0.840771
0.825985
0.811423
0.797065
0.782896
1.50352
1.4761
1.43951
1.40222
1.36765
1.33541
1.30422
1.27351
1.24349
1.21458
1.18703
1.16085
1.13594
1.11216
1.08942
1.06762
1.0467
1.02659
1.0072
0.988479
0.970353
0.952766
0.935664
0.918998
0.902725
0.886808
0.871212
0.855908
0.84087
0.826075
0.811503
0.797136
0.782959
1.50352
1.4761
1.43951
1.40222
1.36765
1.33541
1.30422
1.27351
1.24349
1.21458
1.18703
1.16085
1.13594
1.11216
1.08942
1.06762
1.0467
1.02659
1.0072
0.988479
0.970353
0.952766
0.935664
0.918998
0.902725
0.886808
0.871212
0.855908
0.84087
0.826075
0.811503
0.797136
0.782959
1.51219
1.48162
1.44181
1.40276
1.36768
1.33533
1.30395
1.273
1.24283
1.2139
1.18641
1.16031
1.13546
1.11174
1.08904
1.06729
1.04641
1.02633
1.00697
0.98827
0.970162
0.95259
0.935501
0.918847
0.902585
0.886679
0.871093
0.855799
0.840771
0.825985
0.811423
0.797065
0.782896
1.53334
1.49286
1.44513
1.4027
1.36692
1.33431
1.30246
1.27106
1.24074
1.21193
1.18467
1.1588
1.13416
1.11062
1.08808
1.06647
1.04571
1.02573
1.00646
0.98783
0.969784
0.952264
0.93522
0.918605
0.902378
0.886501
0.870942
0.855672
0.840664
0.825897
0.81135
0.797007
0.78285
1.58449
1.51658
1.4539
1.40714
1.37056
1.33701
1.30397
1.27174
1.24107
1.21218
1.18492
1.15905
1.13439
1.11082
1.08826
1.06663
1.04585
1.02585
1.00656
0.987913
0.969851
0.952317
0.935261
0.918636
0.9024
0.886517
0.870953
0.855678
0.840668
0.825898
0.81135
0.797005
0.782848
1.55799
1.50052
1.44592
1.4031
1.36829
1.33611
1.30426
1.27285
1.24258
1.21381
1.18652
1.16056
1.13579
1.11211
1.08944
1.06771
1.04684
1.02675
1.00738
0.988655
0.970522
0.952922
0.935805
0.919125
0.902839
0.88691
0.871306
0.855996
0.840953
0.826155
0.811581
0.797213
0.783036
1.50699
1.47684
1.43773
1.39954
1.36533
1.33373
1.30294
1.27245
1.24268
1.21408
1.18684
1.16091
1.13616
1.1125
1.08983
1.06808
1.04719
1.02707
1.00768
0.988935
0.970781
0.953162
0.936026
0.919328
0.903026
0.887082
0.871463
0.85614
0.841085
0.826275
0.811692
0.797315
0.78313
1.48619
1.46595
1.435
1.40032
1.36672
1.33516
1.30474
1.27478
1.2453
1.2167
1.18929
1.16315
1.1382
1.11435
1.09149
1.06956
1.04849
1.02822
1.00868
0.989813
0.971548
0.953833
0.936613
0.91984
0.903472
0.88747
0.8718
0.856432
0.841338
0.826495
0.811881
0.797479
0.783271
1.47765
1.46053
1.43285
1.40001
1.3669
1.33537
1.3051
1.27541
1.24614
1.2176
1.19015
1.16394
1.13893
1.11502
1.09211
1.07013
1.04901
1.02869
1.00911
0.990199
0.971901
0.954155
0.936907
0.920109
0.903719
0.887697
0.872008
0.856622
0.841513
0.826655
0.812028
0.797613
0.783393
1.47765
1.46053
1.43285
1.40001
1.3669
1.33537
1.3051
1.27541
1.24614
1.2176
1.19015
1.16394
1.13893
1.11502
1.09211
1.07013
1.04901
1.02869
1.00911
0.990199
0.971901
0.954155
0.936907
0.920109
0.903719
0.887697
0.872008
0.856622
0.841513
0.826655
0.812028
0.797613
0.783393
1.48619
1.46595
1.435
1.40032
1.36672
1.33516
1.30474
1.27478
1.2453
1.2167
1.18929
1.16315
1.1382
1.11435
1.09149
1.06956
1.04849
1.02822
1.00868
0.989813
0.971548
0.953833
0.936613
0.91984
0.903472
0.88747
0.8718
0.856432
0.841338
0.826495
0.811881
0.797479
0.783271
1.50699
1.47684
1.43773
1.39954
1.36533
1.33373
1.30294
1.27245
1.24268
1.21408
1.18684
1.16091
1.13616
1.1125
1.08983
1.06808
1.04719
1.02707
1.00768
0.988935
0.970781
0.953162
0.936026
0.919328
0.903026
0.887082
0.871463
0.85614
0.841085
0.826275
0.811692
0.797315
0.78313
1.55799
1.50052
1.44592
1.4031
1.36829
1.33611
1.30426
1.27285
1.24258
1.21381
1.18652
1.16056
1.13579
1.11211
1.08944
1.06771
1.04684
1.02675
1.00738
0.988655
0.970522
0.952922
0.935805
0.919125
0.902839
0.88691
0.871306
0.855996
0.840953
0.826155
0.811581
0.797213
0.783036
1.54144
1.48805
1.43795
1.39829
1.36528
1.33427
1.30341
1.27281
1.24311
1.21469
1.18758
1.1617
1.13695
1.11326
1.09056
1.06879
1.04787
1.02773
1.0083
0.989531
0.971348
0.9537
0.936537
0.919811
0.90348
0.887509
0.871864
0.856518
0.841442
0.82661
0.812005
0.797608
0.783403
1.49042
1.46428
1.42982
1.39498
1.36264
1.33214
1.30226
1.27258
1.24341
1.21519
1.18815
1.1623
1.13758
1.11391
1.09121
1.06941
1.04846
1.02829
1.00883
0.990015
0.971796
0.954113
0.936916
0.92016
0.903801
0.887804
0.872134
0.856763
0.841663
0.826812
0.812189
0.797776
0.783557
1.46975
1.45349
1.42726
1.39603
1.36429
1.33375
1.3042
1.27506
1.24626
1.21811
1.19092
1.16488
1.13996
1.11609
1.09319
1.0712
1.05005
1.02969
1.01007
0.991108
0.972757
0.954957
0.937657
0.920809
0.90437
0.888302
0.872571
0.857145
0.841999
0.827107
0.812449
0.798006
0.783761
1.46129
1.44814
1.42518
1.3958
1.36455
1.33403
1.30461
1.27575
1.24719
1.21913
1.19192
1.1658
1.14081
1.11688
1.09393
1.07188
1.05067
1.03026
1.01058
0.991572
0.973178
0.955341
0.938006
0.921127
0.90466
0.888568
0.872815
0.857371
0.842208
0.827301
0.812629
0.798173
0.783916
1.46129
1.44814
1.42518
1.3958
1.36455
1.33403
1.30461
1.27575
1.24719
1.21913
1.19192
1.1658
1.14081
1.11688
1.09393
1.07188
1.05067
1.03026
1.01058
0.991572
0.973178
0.955341
0.938006
0.921127
0.90466
0.888568
0.872815
0.857371
0.842208
0.827301
0.812629
0.798173
0.783916
1.46975
1.45349
1.42726
1.39603
1.36429
1.33375
1.3042
1.27506
1.24626
1.21811
1.19092
1.16488
1.13996
1.11609
1.09319
1.0712
1.05005
1.02969
1.01007
0.991108
0.972757
0.954957
0.937657
0.920809
0.90437
0.888302
0.872571
0.857145
0.841999
0.827107
0.812449
0.798006
0.783761
1.49042
1.46428
1.42982
1.39498
1.36264
1.33214
1.30226
1.27258
1.24341
1.21519
1.18815
1.1623
1.13758
1.11391
1.09121
1.06941
1.04846
1.02829
1.00883
0.990015
0.971796
0.954113
0.936916
0.92016
0.903801
0.887804
0.872134
0.856763
0.841663
0.826812
0.812189
0.797776
0.783557
1.54144
1.48805
1.43795
1.39829
1.36528
1.33427
1.30341
1.27281
1.24311
1.21469
1.18758
1.1617
1.13695
1.11326
1.09056
1.06879
1.04787
1.02773
1.0083
0.989531
0.971348
0.9537
0.936537
0.919811
0.90348
0.887509
0.871864
0.856518
0.841442
0.82661
0.812005
0.797608
0.783403
1.52994
1.47834
1.43076
1.39345
1.36211
1.33223
1.30222
1.27234
1.24321
1.21517
1.18831
1.16258
1.13792
1.11427
1.09159
1.06982
1.04888
1.02872
1.00927
0.990463
0.972245
0.954558
0.937355
0.920588
0.904218
0.888209
0.872526
0.857136
0.842018
0.82715
0.812512
0.798084
0.783851
1.47887
1.45446
1.42252
1.39012
1.35954
1.3302
1.30114
1.27216
1.24357
1.21577
1.18899
1.1633
1.13867
1.11504
1.09236
1.07056
1.0496
1.02939
1.0099
0.991047
0.972785
0.955058
0.937816
0.921013
0.904609
0.888566
0.872851
0.857436
0.842293
0.827402
0.812742
0.798295
0.784043
1.45823
1.44367
1.41997
1.39123
1.36131
1.33193
1.30318
1.27473
1.24652
1.21881
1.19193
1.16605
1.14122
1.11739
1.09451
1.07251
1.05134
1.03094
1.01127
0.992255
0.973848
0.955992
0.938636
0.921732
0.905239
0.889119
0.873338
0.857865
0.842673
0.827738
0.81304
0.79856
0.78428
1.4498
1.43834
1.41791
1.39104
1.36162
1.33226
1.30363
1.27546
1.2475
1.2199
1.193
1.16705
1.14215
1.11826
1.09532
1.07325
1.05202
1.03156
1.01182
0.99276
0.974307
0.956408
0.939013
0.922074
0.905551
0.889403
0.873599
0.858106
0.842897
0.827948
0.813236
0.798742
0.784451
1.4498
1.43834
1.41791
1.39104
1.36162
1.33226
1.30363
1.27546
1.2475
1.2199
1.193
1.16705
1.14215
1.11826
1.09532
1.07325
1.05202
1.03156
1.01182
0.99276
0.974307
0.956408
0.939013
0.922074
0.905551
0.889403
0.873599
0.858106
0.842897
0.827948
0.813236
0.798742
0.784451
1.45823
1.44367
1.41997
1.39123
1.36131
1.33193
1.30318
1.27473
1.24652
1.21881
1.19193
1.16605
1.14122
1.11739
1.09451
1.07251
1.05134
1.03094
1.01127
0.992255
0.973848
0.955992
0.938636
0.921732
0.905239
0.889119
0.873338
0.857865
0.842673
0.827738
0.81304
0.79856
0.78428
1.47887
1.45446
1.42252
1.39012
1.35954
1.3302
1.30114
1.27216
1.24357
1.21577
1.18899
1.1633
1.13867
1.11504
1.09236
1.07056
1.0496
1.02939
1.0099
0.991047
0.972785
0.955058
0.937816
0.921013
0.904609
0.888566
0.872851
0.857436
0.842293
0.827402
0.812742
0.798295
0.784043
1.52994
1.47834
1.43076
1.39345
1.36211
1.33223
1.30222
1.27234
1.24321
1.21517
1.18831
1.16258
1.13792
1.11427
1.09159
1.06982
1.04888
1.02872
1.00927
0.990463
0.972245
0.954558
0.937355
0.920588
0.904218
0.888209
0.872526
0.857136
0.842018
0.82715
0.812512
0.798084
0.783851
1.5217
1.471
1.42489
1.38923
1.35926
1.33035
1.30107
1.27177
1.2431
1.21542
1.1888
1.16324
1.13868
1.11509
1.09245
1.07069
1.04976
1.0296
1.01013
0.991301
0.973055
0.955339
0.938103
0.921303
0.904898
0.888853
0.873134
0.857712
0.842565
0.827669
0.813003
0.798548
0.78429
1.47057
1.44702
1.41653
1.38579
1.35665
1.32834
1.30001
1.2716
1.24348
1.21605
1.18954
1.16402
1.1395
1.11594
1.09329
1.07151
1.05054
1.03033
1.01081
0.991936
0.973643
0.955882
0.938605
0.921766
0.905325
0.889244
0.873492
0.858041
0.842864
0.827941
0.81325
0.798774
0.784496
1.44991
1.4362
1.41395
1.38692
1.35846
1.33013
1.30211
1.27422
1.24649
1.21918
1.19257
1.16688
1.14216
1.11839
1.09554
1.07355
1.05237
1.03196
1.01225
0.993204
0.974759
0.956862
0.939463
0.922517
0.905982
0.88982
0.873999
0.858487
0.843259
0.82829
0.81356
0.79905
0.784742
1.44147
1.43086
1.41189
1.38674
1.3588
1.33049
1.30259
1.27498
1.24751
1.22031
1.19369
1.16793
1.14314
1.11931
1.0964
1.07434
1.05309
1.03261
1.01284
0.993736
0.975239
0.957296
0.939856
0.922872
0.906303
0.890113
0.874267
0.858735
0.843489
0.828504
0.81376
0.799237
0.784917
1.44147
1.43086
1.41189
1.38674
1.3588
1.33049
1.30259
1.27498
1.24751
1.22031
1.19369
1.16793
1.14314
1.11931
1.0964
1.07434
1.05309
1.03261
1.01284
0.993736
0.975239
0.957296
0.939856
0.922872
0.906303
0.890113
0.874267
0.858735
0.843489
0.828504
0.81376
0.799237
0.784917
1.44991
1.4362
1.41395
1.38692
1.35846
1.33013
1.30211
1.27422
1.24649
1.21918
1.19257
1.16688
1.14216
1.11839
1.09554
1.07355
1.05237
1.03196
1.01225
0.993204
0.974759
0.956862
0.939463
0.922517
0.905982
0.88982
0.873999
0.858487
0.843259
0.82829
0.81356
0.79905
0.784742
1.47057
1.44702
1.41653
1.38579
1.35665
1.32834
1.30001
1.2716
1.24348
1.21605
1.18954
1.16402
1.1395
1.11594
1.09329
1.07151
1.05054
1.03033
1.01081
0.991936
0.973643
0.955882
0.938605
0.921766
0.905325
0.889244
0.873492
0.858041
0.842864
0.827941
0.81325
0.798774
0.784496
1.5217
1.471
1.42489
1.38923
1.35926
1.33035
1.30107
1.27177
1.2431
1.21542
1.1888
1.16324
1.13868
1.11509
1.09245
1.07069
1.04976
1.0296
1.01013
0.991301
0.973055
0.955339
0.938103
0.921303
0.904898
0.888853
0.873134
0.857712
0.842565
0.827669
0.813003
0.798548
0.78429
1.51579
1.46561
1.42038
1.38581
1.35685
1.32872
1.30002
1.27117
1.24287
1.21549
1.18909
1.16367
1.13922
1.11571
1.09311
1.07138
1.05046
1.0303
1.01082
0.991984
0.973721
0.955984
0.938724
0.921899
0.905468
0.889396
0.873651
0.858205
0.843033
0.828113
0.813423
0.798947
0.784668
1.46462
1.44155
1.41193
1.38228
1.35419
1.32669
1.29897
1.27101
1.24327
1.21614
1.18986
1.1645
1.14009
1.11659
1.09399
1.07223
1.05128
1.03106
1.01153
0.992641
0.974328
0.956544
0.939242
0.922376
0.905906
0.889797
0.874017
0.858539
0.843337
0.828389
0.813674
0.799175
0.784876
1.44393
1.4307
1.40932
1.38338
1.356
1.32852
1.30111
1.27367
1.24632
1.21931
1.19295
1.16742
1.14281
1.11911
1.0963
1.07432
1.05315
1.03273
1.01301
0.993938
0.975467
0.957542
0.940113
0.923137
0.906571
0.890379
0.874528
0.858988
0.843732
0.828738
0.813984
0.799451
0.785122
1.43548
1.42535
1.40725
1.38321
1.35635
1.32889
1.30161
1.27445
1.24735
1.22047
1.1941
1.16851
1.14383
1.12006
1.09718
1.07514
1.05389
1.0334
1.01361
0.994484
0.975959
0.957985
0.940513
0.923497
0.906896
0.890674
0.874797
0.859236
0.843962
0.828952
0.814184
0.799638
0.785297
1.43548
1.42535
1.40725
1.38321
1.35635
1.32889
1.30161
1.27445
1.24735
1.22047
1.1941
1.16851
1.14383
1.12006
1.09718
1.07514
1.05389
1.0334
1.01361
0.994484
0.975959
0.957985
0.940513
0.923497
0.906896
0.890674
0.874797
0.859236
0.843962
0.828952
0.814184
0.799638
0.785297
1.44393
1.4307
1.40932
1.38338
1.356
1.32852
1.30111
1.27367
1.24632
1.21931
1.19295
1.16742
1.14281
1.11911
1.0963
1.07432
1.05315
1.03273
1.01301
0.993938
0.975467
0.957542
0.940113
0.923137
0.906571
0.890379
0.874528
0.858988
0.843732
0.828738
0.813984
0.799451
0.785122
1.46462
1.44155
1.41193
1.38228
1.35419
1.32669
1.29897
1.27101
1.24327
1.21614
1.18986
1.1645
1.14009
1.11659
1.09399
1.07223
1.05128
1.03106
1.01153
0.992641
0.974328
0.956544
0.939242
0.922376
0.905906
0.889797
0.874017
0.858539
0.843337
0.828389
0.813674
0.799175
0.784876
1.51579
1.46561
1.42038
1.38581
1.35685
1.32872
1.30002
1.27117
1.24287
1.21549
1.18909
1.16367
1.13922
1.11571
1.09311
1.07138
1.05046
1.0303
1.01082
0.991984
0.973721
0.955984
0.938724
0.921899
0.905468
0.889396
0.873651
0.858205
0.843033
0.828113
0.813423
0.798947
0.784668
1.51171
1.46182
1.41713
1.38324
1.35497
1.32742
1.29916
1.27065
1.24263
1.21546
1.18924
1.16395
1.13958
1.11613
1.09358
1.07188
1.05098
1.03082
1.01134
0.992499
0.974225
0.956474
0.939198
0.922355
0.905905
0.889813
0.874049
0.858584
0.843394
0.828455
0.813748
0.799256
0.784961
1.46049
1.43772
1.40862
1.37965
1.35225
1.32536
1.29809
1.27049
1.24302
1.21612
1.19002
1.1648
1.14048
1.11705
1.09448
1.07275
1.05181
1.0316
1.01207
0.993165
0.97484
0.957041
0.93972
0.922835
0.906346
0.890216
0.874417
0.858919
0.843698
0.828731
0.813999
0.799483
0.785168
1.43978
1.42684
1.40597
1.38072
1.35405
1.32719
1.30025
1.27317
1.24609
1.21932
1.19315
1.16776
1.14324
1.1196
1.09682
1.07487
1.0537
1.03328
1.01355
0.994474
0.975987
0.958044
0.940596
0.923599
0.907011
0.890798
0.874926
0.859366
0.844091
0.829078
0.814306
0.799756
0.785412
1.43133
1.42148
1.40389
1.38054
1.3544
1.32757
1.30076
1.27396
1.24714
1.22049
1.19431
1.16886
1.14427
1.12057
1.09772
1.0757
1.05446
1.03396
1.01417
0.995027
0.976485
0.958492
0.940998
0.923961
0.907338
0.891094
0.875196
0.859614
0.844321
0.829292
0.814506
0.799943
0.785586
1.43133
1.42148
1.40389
1.38054
1.3544
1.32757
1.30076
1.27396
1.24714
1.22049
1.19431
1.16886
1.14427
1.12057
1.09772
1.0757
1.05446
1.03396
1.01417
0.995027
0.976485
0.958492
0.940998
0.923961
0.907338
0.891094
0.875196
0.859614
0.844321
0.829292
0.814506
0.799943
0.785586
1.43978
1.42684
1.40597
1.38072
1.35405
1.32719
1.30025
1.27317
1.24609
1.21932
1.19315
1.16776
1.14324
1.1196
1.09682
1.07487
1.0537
1.03328
1.01355
0.994474
0.975987
0.958044
0.940596
0.923599
0.907011
0.890798
0.874926
0.859366
0.844091
0.829078
0.814306
0.799756
0.785412
1.46049
1.43772
1.40862
1.37965
1.35225
1.32536
1.29809
1.27049
1.24302
1.21612
1.19002
1.1648
1.14048
1.11705
1.09448
1.07275
1.05181
1.0316
1.01207
0.993165
0.97484
0.957041
0.93972
0.922835
0.906346
0.890216
0.874417
0.858919
0.843698
0.828731
0.813999
0.799483
0.785168
1.51171
1.46182
1.41713
1.38324
1.35497
1.32742
1.29916
1.27065
1.24263
1.21546
1.18924
1.16395
1.13958
1.11613
1.09358
1.07188
1.05098
1.03082
1.01134
0.992499
0.974225
0.956474
0.939198
0.922355
0.905905
0.889813
0.874049
0.858584
0.843394
0.828455
0.813748
0.799256
0.784961
1.50912
1.45941
1.41503
1.38154
1.35369
1.32651
1.29854
1.27026
1.24243
1.21541
1.18931
1.16411
1.13981
1.11641
1.09388
1.0722
1.05131
1.03116
1.01169
0.992841
0.974562
0.956802
0.939516
0.922661
0.906199
0.890095
0.874318
0.858841
0.843638
0.828687
0.813968
0.799464
0.785159
1.45789
1.43528
1.40648
1.3779
1.35093
1.32442
1.29747
1.2701
1.24282
1.21607
1.1901
1.16497
1.14072
1.11733
1.0948
1.07309
1.05215
1.03195
1.01242
0.993512
0.97518
0.957371
0.94004
0.923143
0.90664
0.890498
0.874685
0.859174
0.843941
0.828962
0.814218
0.799691
0.785364
1.43716
1.42438
1.4038
1.37894
1.35271
1.32625
1.29963
1.27279
1.2459
1.21929
1.19324
1.16795
1.14349
1.1199
1.09715
1.07522
1.05406
1.03364
1.01391
0.994827
0.976331
0.958377
0.940917
0.923906
0.907306
0.891079
0.875193
0.85962
0.844332
0.829307
0.814523
0.799962
0.785607
1.4287
1.41901
1.40171
1.37876
1.35306
1.32663
1.30014
1.27359
1.24696
1.22046
1.19441
1.16906
1.14454
1.12088
1.09806
1.07605
1.05482
1.03433
1.01453
0.995384
0.976832
0.958827
0.941321
0.924269
0.907633
0.891375
0.875463
0.859867
0.844561
0.82952
0.814722
0.800148
0.785781
1.4287
1.41901
1.40171
1.37876
1.35306
1.32663
1.30014
1.27359
1.24696
1.22046
1.19441
1.16906
1.14454
1.12088
1.09806
1.07605
1.05482
1.03433
1.01453
0.995384
0.976832
0.958827
0.941321
0.924269
0.907633
0.891375
0.875463
0.859867
0.844561
0.82952
0.814722
0.800148
0.785781
1.43716
1.42438
1.4038
1.37894
1.35271
1.32625
1.29963
1.27279
1.2459
1.21929
1.19324
1.16795
1.14349
1.1199
1.09715
1.07522
1.05406
1.03364
1.01391
0.994827
0.976331
0.958377
0.940917
0.923906
0.907306
0.891079
0.875193
0.85962
0.844332
0.829307
0.814523
0.799962
0.785607
1.45789
1.43528
1.40648
1.3779
1.35093
1.32442
1.29747
1.2701
1.24282
1.21607
1.1901
1.16497
1.14072
1.11733
1.0948
1.07309
1.05215
1.03195
1.01242
0.993512
0.97518
0.957371
0.94004
0.923143
0.90664
0.890498
0.874685
0.859174
0.843941
0.828962
0.814218
0.799691
0.785364
1.50912
1.45941
1.41503
1.38154
1.35369
1.32651
1.29854
1.27026
1.24243
1.21541
1.18931
1.16411
1.13981
1.11641
1.09388
1.0722
1.05131
1.03116
1.01169
0.992841
0.974562
0.956802
0.939516
0.922661
0.906199
0.890095
0.874318
0.858841
0.843638
0.828687
0.813968
0.799464
0.785159
1.50787
1.45823
1.41399
1.38069
1.35304
1.32604
1.29822
1.27006
1.24232
1.21538
1.18933
1.16418
1.13991
1.11654
1.09403
1.07236
1.05148
1.03133
1.01186
0.993012
0.97473
0.956966
0.939675
0.922814
0.906346
0.890236
0.874453
0.858969
0.84376
0.828803
0.814079
0.799569
0.785259
1.45663
1.43409
1.40542
1.37703
1.35026
1.32394
1.29714
1.26989
1.24271
1.21604
1.19013
1.16505
1.14083
1.11747
1.09495
1.07325
1.05232
1.03212
1.01259
0.993685
0.975349
0.957537
0.9402
0.923296
0.906788
0.890639
0.87482
0.859303
0.844062
0.829077
0.814327
0.799795
0.785463
1.43589
1.42318
1.40273
1.37806
1.35203
1.32576
1.2993
1.27259
1.2458
1.21926
1.19327
1.16803
1.14362
1.12005
1.09731
1.07539
1.05424
1.03382
1.01409
0.995002
0.976503
0.958543
0.941077
0.92406
0.907453
0.891219
0.875327
0.859747
0.844453
0.829421
0.814632
0.800065
0.785704
1.42743
1.41781
1.40064
1.37787
1.35238
1.32614
1.29982
1.27339
1.24685
1.22044
1.19445
1.16915
1.14467
1.12103
1.09823
1.07623
1.055
1.03451
1.01471
0.995561
0.977005
0.958994
0.941482
0.924423
0.90778
0.891515
0.875597
0.859994
0.844682
0.829634
0.814831
0.800251
0.785878
1.42743
1.41781
1.40064
1.37787
1.35238
1.32614
1.29982
1.27339
1.24685
1.22044
1.19445
1.16915
1.14467
1.12103
1.09823
1.07623
1.055
1.03451
1.01471
0.995561
0.977005
0.958994
0.941482
0.924423
0.90778
0.891515
0.875597
0.859994
0.844682
0.829634
0.814831
0.800251
0.785878
1.43589
1.42318
1.40273
1.37806
1.35203
1.32576
1.2993
1.27259
1.2458
1.21926
1.19327
1.16803
1.14362
1.12005
1.09731
1.07539
1.05424
1.03382
1.01409
0.995002
0.976503
0.958543
0.941077
0.92406
0.907453
0.891219
0.875327
0.859747
0.844453
0.829421
0.814632
0.800065
0.785704
1.45663
1.43409
1.40542
1.37703
1.35026
1.32394
1.29714
1.26989
1.24271
1.21604
1.19013
1.16505
1.14083
1.11747
1.09495
1.07325
1.05232
1.03212
1.01259
0.993685
0.975349
0.957537
0.9402
0.923296
0.906788
0.890639
0.87482
0.859303
0.844062
0.829077
0.814327
0.799795
0.785463
1.50787
1.45823
1.41399
1.38069
1.35304
1.32604
1.29822
1.27006
1.24232
1.21538
1.18933
1.16418
1.13991
1.11654
1.09403
1.07236
1.05148
1.03133
1.01186
0.993012
0.97473
0.956966
0.939675
0.922814
0.906346
0.890236
0.874453
0.858969
0.84376
0.828803
0.814079
0.799569
0.785259
1.50787
1.45823
1.41399
1.38069
1.35304
1.32604
1.29822
1.27006
1.24232
1.21538
1.18933
1.16418
1.13991
1.11654
1.09403
1.07236
1.05148
1.03133
1.01186
0.993012
0.97473
0.956966
0.939675
0.922814
0.906346
0.890236
0.874453
0.858969
0.84376
0.828803
0.814079
0.799569
0.785259
1.45663
1.43409
1.40542
1.37703
1.35026
1.32394
1.29714
1.26989
1.24271
1.21604
1.19013
1.16505
1.14083
1.11747
1.09495
1.07325
1.05232
1.03212
1.01259
0.993685
0.975349
0.957537
0.9402
0.923296
0.906788
0.890639
0.87482
0.859303
0.844062
0.829077
0.814327
0.799795
0.785463
1.43589
1.42318
1.40273
1.37806
1.35203
1.32576
1.2993
1.27259
1.2458
1.21926
1.19327
1.16803
1.14362
1.12005
1.09731
1.07539
1.05424
1.03382
1.01409
0.995002
0.976503
0.958543
0.941077
0.92406
0.907453
0.891219
0.875327
0.859747
0.844453
0.829421
0.814632
0.800065
0.785704
1.42743
1.41781
1.40064
1.37787
1.35238
1.32614
1.29982
1.27339
1.24685
1.22044
1.19445
1.16915
1.14467
1.12103
1.09823
1.07623
1.055
1.03451
1.01471
0.995561
0.977005
0.958994
0.941482
0.924423
0.90778
0.891515
0.875597
0.859994
0.844682
0.829634
0.814831
0.800251
0.785878
1.42743
1.41781
1.40064
1.37787
1.35238
1.32614
1.29982
1.27339
1.24685
1.22044
1.19445
1.16915
1.14467
1.12103
1.09823
1.07623
1.055
1.03451
1.01471
0.995561
0.977005
0.958994
0.941482
0.924423
0.90778
0.891515
0.875597
0.859994
0.844682
0.829634
0.814831
0.800251
0.785878
1.43589
1.42318
1.40273
1.37806
1.35203
1.32576
1.2993
1.27259
1.2458
1.21926
1.19327
1.16803
1.14362
1.12005
1.09731
1.07539
1.05424
1.03382
1.01409
0.995002
0.976503
0.958543
0.941077
0.92406
0.907453
0.891219
0.875327
0.859747
0.844453
0.829421
0.814632
0.800065
0.785704
1.45663
1.43409
1.40542
1.37703
1.35026
1.32394
1.29714
1.26989
1.24271
1.21604
1.19013
1.16505
1.14083
1.11747
1.09495
1.07325
1.05232
1.03212
1.01259
0.993685
0.975349
0.957537
0.9402
0.923296
0.906788
0.890639
0.87482
0.859303
0.844062
0.829077
0.814327
0.799795
0.785463
1.50787
1.45823
1.41399
1.38069
1.35304
1.32604
1.29822
1.27006
1.24232
1.21538
1.18933
1.16418
1.13991
1.11654
1.09403
1.07236
1.05148
1.03133
1.01186
0.993012
0.97473
0.956966
0.939675
0.922814
0.906346
0.890236
0.874453
0.858969
0.84376
0.828803
0.814079
0.799569
0.785259
1.50912
1.45941
1.41503
1.38154
1.35369
1.32651
1.29854
1.27026
1.24243
1.21541
1.18931
1.16411
1.13981
1.11641
1.09388
1.0722
1.05131
1.03116
1.01169
0.992841
0.974562
0.956802
0.939516
0.922661
0.906199
0.890095
0.874318
0.858841
0.843638
0.828687
0.813968
0.799464
0.785159
1.45789
1.43528
1.40648
1.3779
1.35093
1.32442
1.29747
1.2701
1.24282
1.21607
1.1901
1.16497
1.14072
1.11733
1.0948
1.07309
1.05215
1.03195
1.01242
0.993512
0.97518
0.957371
0.94004
0.923143
0.90664
0.890498
0.874685
0.859174
0.843941
0.828962
0.814218
0.799691
0.785364
1.43716
1.42438
1.4038
1.37894
1.35271
1.32625
1.29963
1.27279
1.2459
1.21929
1.19324
1.16795
1.14349
1.1199
1.09715
1.07522
1.05406
1.03364
1.01391
0.994827
0.976331
0.958377
0.940917
0.923906
0.907306
0.891079
0.875193
0.85962
0.844332
0.829307
0.814523
0.799962
0.785607
1.4287
1.41901
1.40171
1.37876
1.35306
1.32663
1.30014
1.27359
1.24696
1.22046
1.19441
1.16906
1.14454
1.12088
1.09806
1.07605
1.05482
1.03433
1.01453
0.995384
0.976832
0.958827
0.941321
0.924269
0.907633
0.891375
0.875463
0.859867
0.844561
0.82952
0.814722
0.800148
0.785781
1.4287
1.41901
1.40171
1.37876
1.35306
1.32663
1.30014
1.27359
1.24696
1.22046
1.19441
1.16906
1.14454
1.12088
1.09806
1.07605
1.05482
1.03433
1.01453
0.995384
0.976832
0.958827
0.941321
0.924269
0.907633
0.891375
0.875463
0.859867
0.844561
0.82952
0.814722
0.800148
0.785781
1.43716
1.42438
1.4038
1.37894
1.35271
1.32625
1.29963
1.27279
1.2459
1.21929
1.19324
1.16795
1.14349
1.1199
1.09715
1.07522
1.05406
1.03364
1.01391
0.994827
0.976331
0.958377
0.940917
0.923906
0.907306
0.891079
0.875193
0.85962
0.844332
0.829307
0.814523
0.799962
0.785607
1.45789
1.43528
1.40648
1.3779
1.35093
1.32442
1.29747
1.2701
1.24282
1.21607
1.1901
1.16497
1.14072
1.11733
1.0948
1.07309
1.05215
1.03195
1.01242
0.993512
0.97518
0.957371
0.94004
0.923143
0.90664
0.890498
0.874685
0.859174
0.843941
0.828962
0.814218
0.799691
0.785364
1.50912
1.45941
1.41503
1.38154
1.35369
1.32651
1.29854
1.27026
1.24243
1.21541
1.18931
1.16411
1.13981
1.11641
1.09388
1.0722
1.05131
1.03116
1.01169
0.992841
0.974562
0.956802
0.939516
0.922661
0.906199
0.890095
0.874318
0.858841
0.843638
0.828687
0.813968
0.799464
0.785159
1.51171
1.46182
1.41713
1.38324
1.35497
1.32742
1.29916
1.27065
1.24263
1.21546
1.18924
1.16395
1.13958
1.11613
1.09358
1.07188
1.05098
1.03082
1.01134
0.992499
0.974225
0.956474
0.939198
0.922355
0.905905
0.889813
0.874049
0.858584
0.843394
0.828455
0.813748
0.799256
0.784961
1.46049
1.43772
1.40862
1.37965
1.35225
1.32536
1.29809
1.27049
1.24302
1.21612
1.19002
1.1648
1.14048
1.11705
1.09448
1.07275
1.05181
1.0316
1.01207
0.993165
0.97484
0.957041
0.93972
0.922835
0.906346
0.890216
0.874417
0.858919
0.843698
0.828731
0.813999
0.799483
0.785168
1.43978
1.42684
1.40597
1.38072
1.35405
1.32719
1.30025
1.27317
1.24609
1.21932
1.19315
1.16776
1.14324
1.1196
1.09682
1.07487
1.0537
1.03328
1.01355
0.994474
0.975987
0.958044
0.940596
0.923599
0.907011
0.890798
0.874926
0.859366
0.844091
0.829078
0.814306
0.799756
0.785412
1.43133
1.42148
1.40389
1.38054
1.3544
1.32757
1.30076
1.27396
1.24714
1.22049
1.19431
1.16886
1.14427
1.12057
1.09772
1.0757
1.05446
1.03396
1.01417
0.995027
0.976485
0.958492
0.940998
0.923961
0.907338
0.891094
0.875196
0.859614
0.844321
0.829292
0.814506
0.799943
0.785586
1.43133
1.42148
1.40389
1.38054
1.3544
1.32757
1.30076
1.27396
1.24714
1.22049
1.19431
1.16886
1.14427
1.12057
1.09772
1.0757
1.05446
1.03396
1.01417
0.995027
0.976485
0.958492
0.940998
0.923961
0.907338
0.891094
0.875196
0.859614
0.844321
0.829292
0.814506
0.799943
0.785586
1.43978
1.42684
1.40597
1.38072
1.35405
1.32719
1.30025
1.27317
1.24609
1.21932
1.19315
1.16776
1.14324
1.1196
1.09682
1.07487
1.0537
1.03328
1.01355
0.994474
0.975987
0.958044
0.940596
0.923599
0.907011
0.890798
0.874926
0.859366
0.844091
0.829078
0.814306
0.799756
0.785412
1.46049
1.43772
1.40862
1.37965
1.35225
1.32536
1.29809
1.27049
1.24302
1.21612
1.19002
1.1648
1.14048
1.11705
1.09448
1.07275
1.05181
1.0316
1.01207
0.993165
0.97484
0.957041
0.93972
0.922835
0.906346
0.890216
0.874417
0.858919
0.843698
0.828731
0.813999
0.799483
0.785168
1.51171
1.46182
1.41713
1.38324
1.35497
1.32742
1.29916
1.27065
1.24263
1.21546
1.18924
1.16395
1.13958
1.11613
1.09358
1.07188
1.05098
1.03082
1.01134
0.992499
0.974225
0.956474
0.939198
0.922355
0.905905
0.889813
0.874049
0.858584
0.843394
0.828455
0.813748
0.799256
0.784961
1.51579
1.46561
1.42038
1.38581
1.35685
1.32872
1.30002
1.27117
1.24287
1.21549
1.18909
1.16367
1.13922
1.11571
1.09311
1.07138
1.05046
1.0303
1.01082
0.991984
0.973721
0.955984
0.938724
0.921899
0.905468
0.889396
0.873651
0.858205
0.843033
0.828113
0.813423
0.798947
0.784668
1.46462
1.44155
1.41193
1.38228
1.35419
1.32669
1.29897
1.27101
1.24327
1.21614
1.18986
1.1645
1.14009
1.11659
1.09399
1.07223
1.05128
1.03106
1.01153
0.992641
0.974328
0.956544
0.939242
0.922376
0.905906
0.889797
0.874017
0.858539
0.843337