/*--------------------------------*- C++ -*----------------------------------*\
| =========                 |                                                 |
| \\      /  F ield         | OpenFOAM: The Open Source CFD Toolbox           |
|  \\    /   O peration     | Version:  2412                                  |
|   \\  /    A nd           | Website:  www.openfoam.com                      |
|    \\/     M anipulation  |                                                 |
\*---------------------------------------------------------------------------*/
FoamFile
{
    version     2.0;
    format      ascii;
    arch        "LSB;label=32;scalar=64";
    class       volScalarField;
    location    "26.003570207336136";
    object      p;
}
// * * * * * * * * * * * * * * * * * * * * * * * * * * * * * * * * * * * * * //

dimensions      [0 2 -2 0 0 0 0];

internalField   nonuniform List<scalar> 
16000
(
1.63845
1.54369
1.46736
1.4164
1.37763
1.34165
1.3065
1.27295
1.2416
1.2124
1.18502
1.15912
1.13448
1.11095
1.0884
1.06677
1.04597
1.02595
1.00664
0.987969
0.96989
0.952343
0.935277
0.918644
0.902404
0.886517
0.870951
0.855676
0.840666
0.825896
0.811348
0.797004
0.782847
1.58658
1.51864
1.45578
1.40864
1.37163
1.33774
1.30443
1.27198
1.2411
1.21204
1.18465
1.15867
1.13393
1.11031
1.08772
1.06607
1.04529
1.02531
1.00604
0.987422
0.969394
0.951897
0.934878
0.918289
0.902087
0.886236
0.870701
0.855453
0.840466
0.825717
0.811187
0.796858
0.782715
1.56528
1.50736
1.45189
1.40783
1.37171
1.33842
1.30571
1.2736
1.24273
1.21346
1.1858
1.15959
1.13466
1.11088
1.08816
1.06642
1.04556
1.0255
1.00618
0.98752
0.969456
0.951929
0.934885
0.918276
0.902058
0.886194
0.870648
0.855392
0.840399
0.825646
0.811113
0.796782
0.782637
1.55657
1.50184
1.44944
1.40697
1.37132
1.33825
1.30581
1.27394
1.24318
1.21391
1.1862
1.15992
1.13493
1.11111
1.08834
1.06656
1.04567
1.0256
1.00626
0.987586
0.969512
0.951976
0.934925
0.918309
0.902086
0.886216
0.870665
0.855404
0.840406
0.825648
0.81111
0.796774
0.782625
1.55657
1.50184
1.44944
1.40697
1.37132
1.33825
1.30581
1.27394
1.24318
1.21391
1.1862
1.15992
1.13493
1.11111
1.08834
1.06656
1.04567
1.0256
1.00626
0.987586
0.969512
0.951976
0.934925
0.918309
0.902086
0.886216
0.870665
0.855404
0.840406
0.825648
0.81111
0.796774
0.782625
1.56528
1.50736
1.45189
1.40783
1.37171
1.33842
1.30571
1.2736
1.24273
1.21346
1.1858
1.15959
1.13466
1.11088
1.08816
1.06642
1.04556
1.0255
1.00618
0.98752
0.969456
0.951929
0.934885
0.918276
0.902058
0.886194
0.870648
0.855392
0.840399
0.825646
0.811113
0.796782
0.782637
1.58658
1.51864
1.45578
1.40864
1.37163
1.33774
1.30443
1.27198
1.2411
1.21204
1.18465
1.15867
1.13393
1.11031
1.08772
1.06607
1.04529
1.02531
1.00604
0.987422
0.969394
0.951897
0.934878
0.918289
0.902087
0.886236
0.870701
0.855453
0.840466
0.825717
0.811187
0.796858
0.782715
1.63845
1.54369
1.46736
1.4164
1.37763
1.34165
1.3065
1.27295
1.2416
1.2124
1.18502
1.15912
1.13448
1.11095
1.0884
1.06677
1.04597
1.02595
1.00664
0.987969
0.96989
0.952343
0.935277
0.918644
0.902404
0.886517
0.870951
0.855676
0.840666
0.825896
0.811348
0.797004
0.782847
1.58449
1.51658
1.4539
1.40714
1.37056
1.33701
1.30397
1.27174
1.24107
1.21218
1.18493
1.15905
1.13439
1.11083
1.08827
1.06663
1.04585
1.02585
1.00656
0.987914
0.969852
0.952319
0.935263
0.918637
0.902402
0.886518
0.870954
0.85568
0.840669
0.8259
0.811351
0.797006
0.782849
1.53334
1.49286
1.44513
1.4027
1.36692
1.33431
1.30246
1.27106
1.24074
1.21193
1.18467
1.15881
1.13416
1.11062
1.08808
1.06647
1.04571
1.02573
1.00646
0.987832
0.969786
0.952266
0.935222
0.918607
0.902379
0.886502
0.870943
0.855673
0.840666
0.825898
0.811352
0.797008
0.782851
1.51219
1.48162
1.44182
1.40276
1.36768
1.33534
1.30395
1.273
1.24283
1.2139
1.18641
1.16031
1.13546
1.11174
1.08904
1.06729
1.04641
1.02633
1.00697
0.988271
0.970163
0.952591
0.935502
0.918848
0.902587
0.88668
0.871094
0.8558
0.840772
0.825987
0.811424
0.797066
0.782897
1.50352
1.4761
1.43951
1.40222
1.36765
1.33542
1.30423
1.27352
1.24349
1.21459
1.18703
1.16086
1.13594
1.11216
1.08942
1.06762
1.04671
1.02659
1.0072
0.98848
0.970354
0.952767
0.935665
0.919
0.902727
0.886809
0.871213
0.855909
0.840871
0.826076
0.811504
0.797138
0.78296
1.50352
1.4761
1.43951
1.40222
1.36765
1.33542
1.30423
1.27352
1.24349
1.21459
1.18703
1.16086
1.13594
1.11216
1.08942
1.06762
1.04671
1.02659
1.0072
0.98848
0.970354
0.952767
0.935665
0.919
0.902727
0.886809
0.871213
0.855909
0.840871
0.826076
0.811504
0.797138
0.78296
1.51219
1.48162
1.44182
1.40276
1.36768
1.33534
1.30395
1.273
1.24283
1.2139
1.18641
1.16031
1.13546
1.11174
1.08904
1.06729
1.04641
1.02633
1.00697
0.988271
0.970163
0.952591
0.935502
0.918848
0.902587
0.88668
0.871094
0.8558
0.840772
0.825987
0.811424
0.797066
0.782897
1.53334
1.49286
1.44513
1.4027
1.36692
1.33431
1.30246
1.27106
1.24074
1.21193
1.18467
1.15881
1.13416
1.11062
1.08808
1.06647
1.04571
1.02573
1.00646
0.987832
0.969786
0.952266
0.935222
0.918607
0.902379
0.886502
0.870943
0.855673
0.840666
0.825898
0.811352
0.797008
0.782851
1.58449
1.51658
1.4539
1.40714
1.37056
1.33701
1.30397
1.27174
1.24107
1.21218
1.18493
1.15905
1.13439
1.11083
1.08827
1.06663
1.04585
1.02585
1.00656
0.987914
0.969852
0.952319
0.935263
0.918637
0.902402
0.886518
0.870954
0.85568
0.840669
0.8259
0.811351
0.797006
0.782849
1.55799
1.50052
1.44592
1.4031
1.36829
1.33611
1.30426
1.27285
1.24259
1.21381
1.18652
1.16056
1.13579
1.11211
1.08945
1.06771
1.04684
1.02675
1.00738
0.988656
0.970523
0.952924
0.935807
0.919126
0.90284
0.886912
0.871308
0.855998
0.840955
0.826156
0.811582
0.797214
0.783037
1.507
1.47685
1.43773
1.39954
1.36533
1.33374
1.30294
1.27245
1.24268
1.21408
1.18684
1.16091
1.13616
1.1125
1.08983
1.06808
1.04719
1.02708
1.00768
0.988936
0.970782
0.953163
0.936028
0.91933
0.903027
0.887083
0.871465
0.856141
0.841086
0.826277
0.811693
0.797316
0.783131
1.48619
1.46595
1.435
1.40033
1.36672
1.33516
1.30474
1.27478
1.2453
1.2167
1.18929
1.16315
1.1382
1.11435
1.09149
1.06956
1.04849
1.02822
1.00868
0.989814
0.97155
0.953834
0.936614
0.919842
0.903474
0.887472
0.871801
0.856433
0.841339
0.826496
0.811883
0.79748
0.783272
1.47765
1.46054
1.43286
1.40001
1.3669
1.33537
1.30511
1.27541
1.24614
1.2176
1.19015
1.16394
1.13893
1.11502
1.09211
1.07013
1.04901
1.02869
1.00911
0.990201
0.971903
0.954156
0.936908
0.920111
0.90372
0.887698
0.872009
0.856624
0.841514
0.826656
0.812029
0.797614
0.783395
1.47765
1.46054
1.43286
1.40001
1.3669
1.33537
1.30511
1.27541
1.24614
1.2176
1.19015
1.16394
1.13893
1.11502
1.09211
1.07013
1.04901
1.02869
1.00911
0.990201
0.971903
0.954156
0.936908
0.920111
0.90372
0.887698
0.872009
0.856624
0.841514
0.826656
0.812029
0.797614
0.783395
1.48619
1.46595
1.435
1.40033
1.36672
1.33516
1.30474
1.27478
1.2453
1.2167
1.18929
1.16315
1.1382
1.11435
1.09149
1.06956
1.04849
1.02822
1.00868
0.989814
0.97155
0.953834
0.936614
0.919842
0.903474
0.887472
0.871801
0.856433
0.841339
0.826496
0.811883
0.79748
0.783272
1.507
1.47685
1.43773
1.39954
1.36533
1.33374
1.30294
1.27245
1.24268
1.21408
1.18684
1.16091
1.13616
1.1125
1.08983
1.06808
1.04719
1.02708
1.00768
0.988936
0.970782
0.953163
0.936028
0.91933
0.903027
0.887083
0.871465
0.856141
0.841086
0.826277
0.811693
0.797316
0.783131
1.55799
1.50052
1.44592
1.4031
1.36829
1.33611
1.30426
1.27285
1.24259
1.21381
1.18652
1.16056
1.13579
1.11211
1.08945
1.06771
1.04684
1.02675
1.00738
0.988656
0.970523
0.952924
0.935807
0.919126
0.90284
0.886912
0.871308
0.855998
0.840955
0.826156
0.811582
0.797214
0.783037
1.54144
1.48805
1.43795
1.39829
1.36528
1.33427
1.30341
1.27281
1.24312
1.21469
1.18758
1.1617
1.13695
1.11326
1.09056
1.06879
1.04787
1.02773
1.00831
0.989532
0.97135
0.953702
0.936538
0.919812
0.903482
0.88751
0.871865
0.856519
0.841443
0.826612
0.812006
0.797609
0.783404
1.49042
1.46428
1.42982
1.39498
1.36264
1.33214
1.30226
1.27258
1.24342
1.2152
1.18815
1.1623
1.13758
1.11391
1.09121
1.06941
1.04846
1.02829
1.00883
0.990017
0.971798
0.954115
0.936918
0.920161
0.903802
0.887805
0.872135
0.856764
0.841664
0.826813
0.81219
0.797777
0.783559
1.46975
1.45349
1.42726
1.39603
1.36429
1.33375
1.3042
1.27506
1.24626
1.21811
1.19093
1.16488
1.13996
1.11609
1.09319
1.0712
1.05005
1.0297
1.01007
0.99111
0.972758
0.954959
0.937658
0.92081
0.904371
0.888304
0.872572
0.857147
0.842
0.827109
0.812451
0.798007
0.783762
1.46129
1.44814
1.42518
1.3958
1.36455
1.33404
1.30461
1.27575
1.24719
1.21913
1.19192
1.1658
1.14081
1.11689
1.09393
1.07188
1.05067
1.03026
1.01058
0.991573
0.97318
0.955342
0.938007
0.921128
0.904662
0.888569
0.872816
0.857372
0.842209
0.827302
0.81263
0.798174
0.783917
1.46129
1.44814
1.42518
1.3958
1.36455
1.33404
1.30461
1.27575
1.24719
1.21913
1.19192
1.1658
1.14081
1.11689
1.09393
1.07188
1.05067
1.03026
1.01058
0.991573
0.97318
0.955342
0.938007
0.921128
0.904662
0.888569
0.872816
0.857372
0.842209
0.827302
0.81263
0.798174
0.783917
1.46975
1.45349
1.42726
1.39603
1.36429
1.33375
1.3042
1.27506
1.24626
1.21811
1.19093
1.16488
1.13996
1.11609
1.09319
1.0712
1.05005
1.0297
1.01007
0.99111
0.972758
0.954959
0.937658
0.92081
0.904371
0.888304
0.872572
0.857147
0.842
0.827109
0.812451
0.798007
0.783762
1.49042
1.46428
1.42982
1.39498
1.36264
1.33214
1.30226
1.27258
1.24342
1.2152
1.18815
1.1623
1.13758
1.11391
1.09121
1.06941
1.04846
1.02829
1.00883
0.990017
0.971798
0.954115
0.936918
0.920161
0.903802
0.887805
0.872135
0.856764
0.841664
0.826813
0.81219
0.797777
0.783559
1.54144
1.48805
1.43795
1.39829
1.36528
1.33427
1.30341
1.27281
1.24312
1.21469
1.18758
1.1617
1.13695
1.11326
1.09056
1.06879
1.04787
1.02773
1.00831
0.989532
0.97135
0.953702
0.936538
0.919812
0.903482
0.88751
0.871865
0.856519
0.841443
0.826612
0.812006
0.797609
0.783404
1.52994
1.47834
1.43076
1.39345
1.36212
1.33223
1.30223
1.27235
1.24321
1.21517
1.18832
1.16258
1.13792
1.11427
1.09159
1.06982
1.04888
1.02872
1.00927
0.990465
0.972246
0.95456
0.937356
0.920589
0.904219
0.88821
0.872527
0.857137
0.842019
0.827152
0.812513
0.798086
0.783853
1.47887
1.45446
1.42252
1.39012
1.35955
1.3302
1.30114
1.27216
1.24357
1.21577
1.18899
1.1633
1.13867
1.11504
1.09236
1.07057
1.0496
1.0294
1.0099
0.991049
0.972786
0.955059
0.937817
0.921014
0.90461
0.888567
0.872853
0.857437
0.842295
0.827404
0.812743
0.798296
0.784044
1.45823
1.44367
1.41997
1.39123
1.36131
1.33193
1.30318
1.27473
1.24652
1.21882
1.19193
1.16605
1.14122
1.1174
1.09451
1.07251
1.05134
1.03094
1.01127
0.992256
0.97385
0.955993
0.938637
0.921733
0.905241
0.889121
0.873339
0.857866
0.842674
0.82774
0.813042
0.798561
0.784281
1.4498
1.43834
1.41791
1.39104
1.36162
1.33226
1.30363
1.27546
1.2475
1.2199
1.193
1.16705
1.14215
1.11827
1.09532
1.07326
1.05202
1.03156
1.01183
0.992762
0.974308
0.956409
0.939014
0.922076
0.905552
0.889405
0.8736
0.858107
0.842898
0.827949
0.813237
0.798744
0.784452
1.4498
1.43834
1.41791
1.39104
1.36162
1.33226
1.30363
1.27546
1.2475
1.2199
1.193
1.16705
1.14215
1.11827
1.09532
1.07326
1.05202
1.03156
1.01183
0.992762
0.974308
0.956409
0.939014
0.922076
0.905552
0.889405
0.8736
0.858107
0.842898
0.827949
0.813237
0.798744
0.784452
1.45823
1.44367
1.41997
1.39123
1.36131
1.33193
1.30318
1.27473
1.24652
1.21882
1.19193
1.16605
1.14122
1.1174
1.09451
1.07251
1.05134
1.03094
1.01127
0.992256
0.97385
0.955993
0.938637
0.921733
0.905241
0.889121
0.873339
0.857866
0.842674
0.82774
0.813042
0.798561
0.784281
1.47887
1.45446
1.42252
1.39012
1.35955
1.3302
1.30114
1.27216
1.24357
1.21577
1.18899
1.1633
1.13867
1.11504
1.09236
1.07057
1.0496
1.0294
1.0099
0.991049
0.972786
0.955059
0.937817
0.921014
0.90461
0.888567
0.872853
0.857437
0.842295
0.827404
0.812743
0.798296
0.784044
1.52994
1.47834
1.43076
1.39345
1.36212
1.33223
1.30223
1.27235
1.24321
1.21517
1.18832
1.16258
1.13792
1.11427
1.09159
1.06982
1.04888
1.02872
1.00927
0.990465
0.972246
0.95456
0.937356
0.920589
0.904219
0.88821
0.872527
0.857137
0.842019
0.827152
0.812513
0.798086
0.783853
1.5217
1.471
1.42489
1.38923
1.35926
1.33035
1.30107
1.27177
1.2431
1.21542
1.18881
1.16324
1.13868
1.1151
1.09245
1.0707
1.04976
1.0296
1.01013
0.991302
0.973057
0.955341
0.938104
0.921304
0.9049
0.888855
0.873135
0.857714
0.842566
0.82767
0.813004
0.79855
0.784291
1.47057
1.44702
1.41653
1.3858
1.35666
1.32834
1.30001
1.2716
1.24348
1.21605
1.18954
1.16402
1.1395
1.11594
1.09329
1.07151
1.05054
1.03033
1.01081
0.991937
0.973644
0.955884
0.938607
0.921768
0.905326
0.889245
0.873494
0.858042
0.842866
0.827942
0.813252
0.798775
0.784497
1.44991
1.4362
1.41395
1.38692
1.35847
1.33014
1.30211
1.27422
1.2465
1.21918
1.19258
1.16688
1.14216
1.11839
1.09554
1.07355
1.05237
1.03196
1.01225
0.993206
0.97476
0.956863
0.939464
0.922518
0.905983
0.889822
0.874
0.858489
0.84326
0.828292
0.813562
0.799051
0.784743
1.44147
1.43086
1.41189
1.38674
1.3588
1.3305
1.3026
1.27499
1.24751
1.22031
1.1937
1.16793
1.14314
1.11931
1.0964
1.07434
1.05309
1.03261
1.01284
0.993737
0.975241
0.957298
0.939857
0.922873
0.906305
0.890114
0.874268
0.858736
0.84349
0.828506
0.813762
0.799238
0.784919
1.44147
1.43086
1.41189
1.38674
1.3588
1.3305
1.3026
1.27499
1.24751
1.22031
1.1937
1.16793
1.14314
1.11931
1.0964
1.07434
1.05309
1.03261
1.01284
0.993737
0.975241
0.957298
0.939857
0.922873
0.906305
0.890114
0.874268
0.858736
0.84349
0.828506
0.813762
0.799238
0.784919
1.44991
1.4362
1.41395
1.38692
1.35847
1.33014
1.30211
1.27422
1.2465
1.21918
1.19258
1.16688
1.14216
1.11839
1.09554
1.07355
1.05237
1.03196
1.01225
0.993206
0.97476
0.956863
0.939464
0.922518
0.905983
0.889822
0.874
0.858489
0.84326
0.828292
0.813562
0.799051
0.784743
1.47057
1.44702
1.41653
1.3858
1.35666
1.32834
1.30001
1.2716
1.24348
1.21605
1.18954
1.16402
1.1395
1.11594
1.09329
1.07151
1.05054
1.03033
1.01081
0.991937
0.973644
0.955884
0.938607
0.921768
0.905326
0.889245
0.873494
0.858042
0.842866
0.827942
0.813252
0.798775
0.784497
1.5217
1.471
1.42489
1.38923
1.35926
1.33035
1.30107
1.27177
1.2431
1.21542
1.18881
1.16324
1.13868
1.1151
1.09245
1.0707
1.04976
1.0296
1.01013
0.991302
0.973057
0.955341
0.938104
0.921304
0.9049
0.888855
0.873135
0.857714
0.842566
0.82767
0.813004
0.79855
0.784291
1.51579
1.46561
1.42038
1.38581
1.35685
1.32873
1.30002
1.27117
1.24288
1.21549
1.18909
1.16367
1.13922
1.11571
1.09311
1.07138
1.05046
1.0303
1.01083
0.991985
0.973723
0.955985
0.938726
0.921901
0.90547
0.889397
0.873652
0.858206
0.843034
0.828114
0.813424
0.798948
0.784669
1.46462
1.44156
1.41194
1.38228
1.35419
1.3267
1.29897
1.27101
1.24327
1.21614
1.18986
1.16451
1.14009
1.1166
1.09399
1.07224
1.05128
1.03106
1.01154
0.992643
0.974329
0.956546
0.939243
0.922377
0.905907
0.889799
0.874019
0.85854
0.843338
0.82839
0.813676
0.799177
0.784877
1.44393
1.4307
1.40932
1.38338
1.356
1.32852
1.30111
1.27367
1.24632
1.21931
1.19295
1.16742
1.14281
1.11911
1.0963
1.07433
1.05315
1.03273
1.01301
0.993939
0.975468
0.957543
0.940115
0.923138
0.906572
0.89038
0.874529
0.858989
0.843734
0.82874
0.813985
0.799452
0.785123
1.43548
1.42535
1.40725
1.38321
1.35635
1.32889
1.30161
1.27445
1.24735
1.22047
1.1941
1.16851
1.14383
1.12006
1.09718
1.07514
1.05389
1.0334
1.01361
0.994485
0.97596
0.957986
0.940514
0.923498
0.906897
0.890675
0.874799
0.859237
0.843964
0.828954
0.814185
0.799639
0.785298
1.43548
1.42535
1.40725
1.38321
1.35635
1.32889
1.30161
1.27445
1.24735
1.22047
1.1941
1.16851
1.14383
1.12006
1.09718
1.07514
1.05389
1.0334
1.01361
0.994485
0.97596
0.957986
0.940514
0.923498
0.906897
0.890675
0.874799
0.859237
0.843964
0.828954
0.814185
0.799639
0.785298
1.44393
1.4307
1.40932
1.38338
1.356
1.32852
1.30111
1.27367
1.24632
1.21931
1.19295
1.16742
1.14281
1.11911
1.0963
1.07433
1.05315
1.03273
1.01301
0.993939
0.975468
0.957543
0.940115
0.923138
0.906572
0.89038
0.874529
0.858989
0.843734
0.82874
0.813985
0.799452
0.785123
1.46462
1.44156
1.41194
1.38228
1.35419
1.3267
1.29897
1.27101
1.24327
1.21614
1.18986
1.16451
1.14009
1.1166
1.09399
1.07224
1.05128
1.03106
1.01154
0.992643
0.974329
0.956546
0.939243
0.922377
0.905907
0.889799
0.874019
0.85854
0.843338
0.82839
0.813676
0.799177
0.784877
1.51579
1.46561
1.42038
1.38581
1.35685
1.32873
1.30002
1.27117
1.24288
1.21549
1.18909
1.16367
1.13922
1.11571
1.09311
1.07138
1.05046
1.0303
1.01083
0.991985
0.973723
0.955985
0.938726
0.921901
0.90547
0.889397
0.873652
0.858206
0.843034
0.828114
0.813424
0.798948
0.784669
1.51171
1.46182
1.41713
1.38325
1.35497
1.32742
1.29916
1.27065
1.24263
1.21546
1.18924
1.16395
1.13959
1.11614
1.09358
1.07188
1.05098
1.03082
1.01135
0.9925
0.974227
0.956475
0.939199
0.922356
0.905906
0.889815
0.874051
0.858586
0.843395
0.828457
0.81375
0.799257
0.784962
1.4605
1.43772
1.40862
1.37965
1.35225
1.32536
1.2981
1.27049
1.24302
1.21612
1.19002
1.1648
1.14048
1.11705
1.09448
1.07275
1.05181
1.0316
1.01207
0.993167
0.974841
0.957042
0.939722
0.922837
0.906347
0.890218
0.874418
0.85892
0.843699
0.828733
0.814
0.799484
0.785169
1.43978
1.42684
1.40597
1.38072
1.35405
1.32719
1.30025
1.27317
1.24609
1.21932
1.19315
1.16776
1.14324
1.1196
1.09682
1.07487
1.05371
1.03328
1.01356
0.994476
0.975989
0.958046
0.940597
0.9236
0.907013
0.8908
0.874928
0.859367
0.844092
0.82908
0.814308
0.799758
0.785413
1.43133
1.42148
1.40389
1.38054
1.3544
1.32757
1.30076
1.27396
1.24714
1.22049
1.19431
1.16887
1.14427
1.12057
1.09772
1.0757
1.05446
1.03396
1.01417
0.995029
0.976487
0.958493
0.941
0.923962
0.907339
0.891095
0.875197
0.859615
0.844322
0.829293
0.814507
0.799944
0.785588
1.43133
1.42148
1.40389
1.38054
1.3544
1.32757
1.30076
1.27396
1.24714
1.22049
1.19431
1.16887
1.14427
1.12057
1.09772
1.0757
1.05446
1.03396
1.01417
0.995029
0.976487
0.958493
0.941
0.923962
0.907339
0.891095
0.875197
0.859615
0.844322
0.829293
0.814507
0.799944
0.785588
1.43978
1.42684
1.40597
1.38072
1.35405
1.32719
1.30025
1.27317
1.24609
1.21932
1.19315
1.16776
1.14324
1.1196
1.09682
1.07487
1.05371
1.03328
1.01356
0.994476
0.975989
0.958046
0.940597
0.9236
0.907013
0.8908
0.874928
0.859367
0.844092
0.82908
0.814308
0.799758
0.785413
1.4605
1.43772
1.40862
1.37965
1.35225
1.32536
1.2981
1.27049
1.24302
1.21612
1.19002
1.1648
1.14048
1.11705
1.09448
1.07275
1.05181
1.0316
1.01207
0.993167
0.974841
0.957042
0.939722
0.922837
0.906347
0.890218
0.874418
0.85892
0.843699
0.828733
0.814
0.799484
0.785169
1.51171
1.46182
1.41713
1.38325
1.35497
1.32742
1.29916
1.27065
1.24263
1.21546
1.18924
1.16395
1.13959
1.11614
1.09358
1.07188
1.05098
1.03082
1.01135
0.9925
0.974227
0.956475
0.939199
0.922356
0.905906
0.889815
0.874051
0.858586
0.843395
0.828457
0.81375
0.799257
0.784962
1.50913
1.45941
1.41503
1.38154
1.35369
1.32651
1.29854
1.27026
1.24243
1.21541
1.18931
1.16411
1.13981
1.11641
1.09388
1.0722
1.05132
1.03116
1.01169
0.992843
0.974563
0.956803
0.939517
0.922662
0.9062
0.890096
0.874319
0.858842
0.843639
0.828688
0.81397
0.799466
0.78516
1.45789
1.43528
1.40648
1.3779
1.35093
1.32443
1.29747
1.2701
1.24282
1.21608
1.1901
1.16497
1.14072
1.11733
1.0948
1.07309
1.05216
1.03195
1.01242
0.993514
0.975181
0.957373
0.940041
0.923144
0.906641
0.890499
0.874687
0.859176
0.843942
0.828963
0.814219
0.799692
0.785366
1.43716
1.42438
1.4038
1.37895
1.35271
1.32625
1.29963
1.27279
1.2459
1.21929
1.19324
1.16795
1.1435
1.1199
1.09715
1.07522
1.05406
1.03364
1.01392
0.994828
0.976333
0.958379
0.940918
0.923908
0.907307
0.89108
0.875194
0.859621
0.844333
0.829308
0.814524
0.799963
0.785608
1.4287
1.41901
1.40171
1.37876
1.35306
1.32663
1.30014
1.27359
1.24696
1.22046
1.19441
1.16907
1.14454
1.12088
1.09806
1.07605
1.05482
1.03433
1.01453
0.995386
0.976834
0.958828
0.941322
0.924271
0.907634
0.891376
0.875464
0.859869
0.844563
0.829521
0.814723
0.800149
0.785782
1.4287
1.41901
1.40171
1.37876
1.35306
1.32663
1.30014
1.27359
1.24696
1.22046
1.19441
1.16907
1.14454
1.12088
1.09806
1.07605
1.05482
1.03433
1.01453
0.995386
0.976834
0.958828
0.941322
0.924271
0.907634
0.891376
0.875464
0.859869
0.844563
0.829521
0.814723
0.800149
0.785782
1.43716
1.42438
1.4038
1.37895
1.35271
1.32625
1.29963
1.27279
1.2459
1.21929
1.19324
1.16795
1.1435
1.1199
1.09715
1.07522
1.05406
1.03364
1.01392
0.994828
0.976333
0.958379
0.940918
0.923908
0.907307
0.89108
0.875194
0.859621
0.844333
0.829308
0.814524
0.799963
0.785608
1.45789
1.43528
1.40648
1.3779
1.35093
1.32443
1.29747
1.2701
1.24282
1.21608
1.1901
1.16497
1.14072
1.11733
1.0948
1.07309
1.05216
1.03195
1.01242
0.993514
0.975181
0.957373
0.940041
0.923144
0.906641
0.890499
0.874687
0.859176
0.843942
0.828963
0.814219
0.799692
0.785366
1.50913
1.45941
1.41503
1.38154
1.35369
1.32651
1.29854
1.27026
1.24243
1.21541
1.18931
1.16411
1.13981
1.11641
1.09388
1.0722
1.05132
1.03116
1.01169
0.992843
0.974563
0.956803
0.939517
0.922662
0.9062
0.890096
0.874319
0.858842
0.843639
0.828688
0.81397
0.799466
0.78516
1.50787
1.45823
1.41399
1.38069
1.35304
1.32604
1.29822
1.27006
1.24232
1.21538
1.18933
1.16418
1.13992
1.11654
1.09403
1.07236
1.05148
1.03134
1.01186
0.993014
0.974731
0.956967
0.939676
0.922816
0.906348
0.890238
0.874455
0.858971
0.843761
0.828805
0.81408
0.799571
0.78526
1.45663
1.4341
1.40542
1.37703
1.35026
1.32394
1.29714
1.26989
1.24271
1.21604
1.19013
1.16505
1.14083
1.11747
1.09495
1.07325
1.05233
1.03212
1.01259
0.993687
0.975351
0.957538
0.940201
0.923298
0.906789
0.89064
0.874821
0.859304
0.844064
0.829079
0.814329
0.799796
0.785464
1.43589
1.42318
1.40274
1.37806
1.35203
1.32576
1.2993
1.27259
1.2458
1.21926
1.19327
1.16803
1.14362
1.12005
1.09731
1.07539
1.05424
1.03382
1.01409
0.995004
0.976504
0.958545
0.941078
0.924061
0.907454
0.891221
0.875328
0.859748
0.844454
0.829423
0.814633
0.800066
0.785706
1.42743
1.41781
1.40064
1.37787
1.35238
1.32615
1.29982
1.27339
1.24686
1.22044
1.19445
1.16916
1.14467
1.12103
1.09823
1.07623
1.055
1.03451
1.01471
0.995563
0.977006
0.958995
0.941483
0.924425
0.907781
0.891516
0.875598
0.859996
0.844683
0.829636
0.814832
0.800252
0.78588
1.42743
1.41781
1.40064
1.37787
1.35238
1.32615
1.29982
1.27339
1.24686
1.22044
1.19445
1.16916
1.14467
1.12103
1.09823
1.07623
1.055
1.03451
1.01471
0.995563
0.977006
0.958995
0.941483
0.924425
0.907781
0.891516
0.875598
0.859996
0.844683
0.829636
0.814832
0.800252
0.78588
1.43589
1.42318
1.40274
1.37806
1.35203
1.32576
1.2993
1.27259
1.2458
1.21926
1.19327
1.16803
1.14362
1.12005
1.09731
1.07539
1.05424
1.03382
1.01409
0.995004
0.976504
0.958545
0.941078
0.924061
0.907454
0.891221
0.875328
0.859748
0.844454
0.829423
0.814633
0.800066
0.785706
1.45663
1.4341
1.40542
1.37703
1.35026
1.32394
1.29714
1.26989
1.24271
1.21604
1.19013
1.16505
1.14083
1.11747
1.09495
1.07325
1.05233
1.03212
1.01259
0.993687
0.975351
0.957538
0.940201
0.923298
0.906789
0.89064
0.874821
0.859304
0.844064
0.829079
0.814329
0.799796
0.785464
1.50787
1.45823
1.41399
1.38069
1.35304
1.32604
1.29822
1.27006
1.24232
1.21538
1.18933
1.16418
1.13992
1.11654
1.09403
1.07236
1.05148
1.03134
1.01186
0.993014
0.974731
0.956967
0.939676
0.922816
0.906348
0.890238
0.874455
0.858971
0.843761
0.828805
0.81408
0.799571
0.78526
1.50787
1.45823
1.41399
1.38069
1.35304
1.32604
1.29822
1.27006
1.24232
1.21538
1.18933
1.16418
1.13992
1.11654
1.09403
1.07236
1.05148
1.03134
1.01186
0.993014
0.974731
0.956967
0.939676
0.922816
0.906348
0.890238
0.874455
0.858971
0.843761
0.828805
0.81408
0.799571
0.78526
1.45663
1.4341
1.40542
1.37703
1.35026
1.32394
1.29714
1.26989
1.24271
1.21604
1.19013
1.16505
1.14083
1.11747
1.09495
1.07325
1.05233
1.03212
1.01259
0.993687
0.975351
0.957538
0.940201
0.923298
0.906789
0.89064
0.874821
0.859304
0.844064
0.829079
0.814329
0.799796
0.785464
1.43589
1.42318
1.40274
1.37806
1.35203
1.32576
1.2993
1.27259
1.2458
1.21926
1.19327
1.16803
1.14362
1.12005
1.09731
1.07539
1.05424
1.03382
1.01409
0.995004
0.976504
0.958545
0.941078
0.924061
0.907454
0.891221
0.875328
0.859748
0.844454
0.829423
0.814633
0.800066
0.785706
1.42743
1.41781
1.40064
1.37787
1.35238
1.32615
1.29982
1.27339
1.24686
1.22044
1.19445
1.16916
1.14467
1.12103
1.09823
1.07623
1.055
1.03451
1.01471
0.995563
0.977006
0.958995
0.941483
0.924425
0.907781
0.891516
0.875598
0.859996
0.844683
0.829636
0.814832
0.800252
0.78588
1.42743
1.41781
1.40064
1.37787
1.35238
1.32615
1.29982
1.27339
1.24686
1.22044
1.19445
1.16916
1.14467
1.12103
1.09823
1.07623
1.055
1.03451
1.01471
0.995563
0.977006
0.958995
0.941483
0.924425
0.907781
0.891516
0.875598
0.859996
0.844683
0.829636
0.814832
0.800252
0.78588
1.43589
1.42318
1.40274
1.37806
1.35203
1.32576
1.2993
1.27259
1.2458
1.21926
1.19327
1.16803
1.14362
1.12005
1.09731
1.07539
1.05424
1.03382
1.01409
0.995004
0.976504
0.958545
0.941078
0.924061
0.907454
0.891221
0.875328
0.859748
0.844454
0.829423
0.814633
0.800066
0.785706
1.45663
1.4341
1.40542
1.37703
1.35026
1.32394
1.29714
1.26989
1.24271
1.21604
1.19013
1.16505
1.14083
1.11747
1.09495
1.07325
1.05233
1.03212
1.01259
0.993687
0.975351
0.957538
0.940201
0.923298
0.906789
0.89064
0.874821
0.859304
0.844064
0.829079
0.814329
0.799796
0.785464
1.50787
1.45823
1.41399
1.38069
1.35304
1.32604
1.29822
1.27006
1.24232
1.21538
1.18933
1.16418
1.13992
1.11654
1.09403
1.07236
1.05148
1.03134
1.01186
0.993014
0.974731
0.956967
0.939676
0.922816
0.906348
0.890238
0.874455
0.858971
0.843761
0.828805
0.81408
0.799571
0.78526
1.50913
1.45941
1.41503
1.38154
1.35369
1.32651
1.29854
1.27026
1.24243
1.21541
1.18931
1.16411
1.13981
1.11641
1.09388
1.0722
1.05132
1.03116
1.01169
0.992843
0.974563
0.956803
0.939517
0.922662
0.9062
0.890096
0.874319
0.858842
0.843639
0.828688
0.81397
0.799466
0.78516
1.45789
1.43528
1.40648
1.3779
1.35093
1.32443
1.29747
1.2701
1.24282
1.21608
1.1901
1.16497
1.14072
1.11733
1.0948
1.07309
1.05216
1.03195
1.01242
0.993514
0.975181
0.957373
0.940041
0.923144
0.906641
0.890499
0.874687
0.859176
0.843942
0.828963
0.814219
0.799692
0.785366
1.43716
1.42438
1.4038
1.37895
1.35271
1.32625
1.29963
1.27279
1.2459
1.21929
1.19324
1.16795
1.1435
1.1199
1.09715
1.07522
1.05406
1.03364
1.01392
0.994828
0.976333
0.958379
0.940918
0.923908
0.907307
0.89108
0.875194
0.859621
0.844333
0.829308
0.814524
0.799963
0.785608
1.4287
1.41901
1.40171
1.37876
1.35306
1.32663
1.30014
1.27359
1.24696
1.22046
1.19441
1.16907
1.14454
1.12088
1.09806
1.07605
1.05482
1.03433
1.01453
0.995386
0.976834
0.958828
0.941322
0.924271
0.907634
0.891376
0.875464
0.859869
0.844563
0.829521
0.814723
0.800149
0.785782
1.4287
1.41901
1.40171
1.37876
1.35306
1.32663
1.30014
1.27359
1.24696
1.22046
1.19441
1.16907
1.14454
1.12088
1.09806
1.07605
1.05482
1.03433
1.01453
0.995386
0.976834
0.958828
0.941322
0.924271
0.907634
0.891376
0.875464
0.859869
0.844563
0.829521
0.814723
0.800149
0.785782
1.43716
1.42438
1.4038
1.37895
1.35271
1.32625
1.29963
1.27279
1.2459
1.21929
1.19324
1.16795
1.1435
1.1199
1.09715
1.07522
1.05406
1.03364
1.01392
0.994828
0.976333
0.958379
0.940918
0.923908
0.907307
0.89108
0.875194
0.859621
0.844333
0.829308
0.814524
0.799963
0.785608
1.45789
1.43528
1.40648
1.3779
1.35093
1.32443
1.29747
1.2701
1.24282
1.21608
1.1901
1.16497
1.14072
1.11733
1.0948
1.07309
1.05216
1.03195
1.01242
0.993514
0.975181
0.957373
0.940041
0.923144
0.906641
0.890499
0.874687
0.859176
0.843942
0.828963
0.814219
0.799692
0.785366
1.50913
1.45941
1.41503
1.38154
1.35369
1.32651
1.29854
1.27026
1.24243
1.21541
1.18931
1.16411
1.13981
1.11641
1.09388
1.0722
1.05132
1.03116
1.01169
0.992843
0.974563
0.956803
0.939517
0.922662
0.9062
0.890096
0.874319
0.858842
0.843639
0.828688
0.81397
0.799466
0.78516
1.51171
1.46182
1.41713
1.38325
1.35497
1.32742
1.29916
1.27065
1.24263
1.21546
1.18924
1.16395
1.13959
1.11614
1.09358
1.07188
1.05098
1.03082
1.01135
0.9925
0.974227
0.956475
0.939199
0.922356
0.905906
0.889815
0.874051
0.858586
0.843395
0.828457
0.81375
0.799257
0.784962
1.4605
1.43772
1.40862
1.37965
1.35225
1.32536
1.2981
1.27049
1.24302
1.21612
1.19002
1.1648
1.14048
1.11705
1.09448
1.07275
1.05181
1.0316
1.01207
0.993167
0.974841
0.957042
0.939722
0.922837
0.906347
0.890218
0.874418
0.85892
0.843699
0.828733
0.814
0.799484
0.785169
1.43978
1.42684
1.40597
1.38072
1.35405
1.32719
1.30025
1.27317
1.24609
1.21932
1.19315
1.16776
1.14324
1.1196
1.09682
1.07487
1.05371
1.03328
1.01356
0.994476
0.975989
0.958046
0.940597
0.9236
0.907013
0.8908
0.874928
0.859367
0.844092
0.82908
0.814308
0.799758
0.785413
1.43133
1.42148
1.40389
1.38054
1.3544
1.32757
1.30076
1.27396
1.24714
1.22049
1.19431
1.16887
1.14427
1.12057
1.09772
1.0757
1.05446
1.03396
1.01417
0.995029
0.976487
0.958493
0.941
0.923962
0.907339
0.891095
0.875197
0.859615
0.844322
0.829293
0.814507
0.799944
0.785588
1.43133
1.42148
1.40389
1.38054
1.3544
1.32757
1.30076
1.27396
1.24714
1.22049
1.19431
1.16887
1.14427
1.12057
1.09772
1.0757
1.05446
1.03396
1.01417
0.995029
0.976487
0.958493
0.941
0.923962
0.907339
0.891095
0.875197
0.859615
0.844322
0.829293
0.814507
0.799944
0.785588
1.43978
1.42684
1.40597
1.38072
1.35405
1.32719
1.30025
1.27317
1.24609
1.21932
1.19315
1.16776
1.14324
1.1196
1.09682
1.07487
1.05371
1.03328
1.01356
0.994476
0.975989
0.958046
0.940597
0.9236
0.907013
0.8908
0.874928
0.859367
0.844092
0.82908
0.814308
0.799758
0.785413
1.4605
1.43772
1.40862
1.37965
1.35225
1.32536
1.2981
1.27049
1.24302
1.21612
1.19002
1.1648
1.14048
1.11705
1.09448
1.07275
1.05181
1.0316
1.01207
0.993167
0.974841
0.957042
0.939722
0.922837
0.906347
0.890218
0.874418
0.85892
0.843699
0.828733
0.814
0.799484
0.785169
1.51171
1.46182
1.41713
1.38325
1.35497
1.32742
1.29916
1.27065
1.24263
1.21546
1.18924
1.16395
1.13959
1.11614
1.09358
1.07188
1.05098
1.03082
1.01135
0.9925
0.974227
0.956475
0.939199
0.922356
0.905906
0.889815
0.874051
0.858586
0.843395
0.828457
0.81375
0.799257
0.784962
1.51579
1.46561
1.42038
1.38581
1.35685
1.32873
1.30002
1.27117
1.24288
1.21549
1.18909
1.16367
1.13922
1.11571
1.09311
1.07138
1.05046
1.0303
1.01083
0.991985
0.973723
0.955985
0.938726
0.921901
0.90547
0.889397
0.873652
0.858206
0.843034
0.828114
0.813424
0.798948
0.784669
1.46462
1.44156
1.41194
1.38228
1.35419
1.3267
1.29897
1.27101
1.24327
1.21614
1.18986
1.16451
1.14009
1.1166
1.09399
1.07224
1.05128
1.03106
1.01154
0.992643
0.974329
0.956546
0.939243
0.922377
0.905907
0.889799
0.874019
0.85854
0.843338
0.82839
0.813676
0.799177
0.784877
1.44393
1.4307
1.40932
1.38338
1.356
1.32852
1.30111
1.27367